 Entering Gaussian System, Link 0=g16
 Input=cis-2-butene_JETWEI.com
 Output=cis-2-butene_JETWEI.log
 Initial command:
 /home/sharp/g16/l1.exe "/home/sharp/g16/scratch/Gau-34600.inp" -scrdir="/home/sharp/g16/scratch/"
 Entering Link 1 = /home/sharp/g16/l1.exe PID=     34601.
  
 Copyright (c) 1988,1990,1992,1993,1995,1998,2003,2009,2016,
            Gaussian, Inc.  All Rights Reserved.
  
 This is part of the Gaussian(R) 16 program.  It is based on
 the Gaussian(R) 09 system (copyright 2009, Gaussian, Inc.),
 the Gaussian(R) 03 system (copyright 2003, Gaussian, Inc.),
 the Gaussian(R) 98 system (copyright 1998, Gaussian, Inc.),
 the Gaussian(R) 94 system (copyright 1995, Gaussian, Inc.),
 the Gaussian 92(TM) system (copyright 1992, Gaussian, Inc.),
 the Gaussian 90(TM) system (copyright 1990, Gaussian, Inc.),
 the Gaussian 88(TM) system (copyright 1988, Gaussian, Inc.),
 the Gaussian 86(TM) system (copyright 1986, Carnegie Mellon
 University), and the Gaussian 82(TM) system (copyright 1983,
 Carnegie Mellon University). Gaussian is a federally registered
 trademark of Gaussian, Inc.
  
 This software contains proprietary and confidential information,
 including trade secrets, belonging to Gaussian, Inc.
  
 This software is provided under written license and may be
 used, copied, transmitted, or stored only in accord with that
 written license.
  
 The following legend is applicable only to US Government
 contracts under FAR:
  
                    RESTRICTED RIGHTS LEGEND
  
 Use, reproduction and disclosure by the US Government is
 subject to restrictions as set forth in subparagraphs (a)
 and (c) of the Commercial Computer Software - Restricted
 Rights clause in FAR 52.227-19.
  
 Gaussian, Inc.
 340 Quinnipiac St., Bldg. 40, Wallingford CT 06492
  
  
 ---------------------------------------------------------------
 Warning -- This program may not be used in any manner that
 competes with the business of Gaussian, Inc. or will provide
 assistance to any competitor of Gaussian, Inc.  The licensee
 of this program is prohibited from giving any competitor of
 Gaussian, Inc. access to this program.  By using this program,
 the user acknowledges that Gaussian, Inc. is engaged in the
 business of creating and licensing software in the field of
 computational chemistry and represents and warrants to the
 licensee that it is not a competitor of Gaussian, Inc. and that
 it will not use this program in any manner prohibited above.
 ---------------------------------------------------------------
  

 Cite this work as:
 Gaussian 16, Revision A.03,
 M. J. Frisch, G. W. Trucks, H. B. Schlegel, G. E. Scuseria, 
 M. A. Robb, J. R. Cheeseman, G. Scalmani, V. Barone, 
 G. A. Petersson, H. Nakatsuji, X. Li, M. Caricato, A. V. Marenich, 
 J. Bloino, B. G. Janesko, R. Gomperts, B. Mennucci, H. P. Hratchian, 
 J. V. Ortiz, A. F. Izmaylov, J. L. Sonnenberg, D. Williams-Young, 
 F. Ding, F. Lipparini, F. Egidi, J. Goings, B. Peng, A. Petrone, 
 T. Henderson, D. Ranasinghe, V. G. Zakrzewski, J. Gao, N. Rega, 
 G. Zheng, W. Liang, M. Hada, M. Ehara, K. Toyota, R. Fukuda, 
 J. Hasegawa, M. Ishida, T. Nakajima, Y. Honda, O. Kitao, H. Nakai, 
 T. Vreven, K. Throssell, J. A. Montgomery, Jr., J. E. Peralta, 
 F. Ogliaro, M. J. Bearpark, J. J. Heyd, E. N. Brothers, K. N. Kudin, 
 V. N. Staroverov, T. A. Keith, R. Kobayashi, J. Normand, 
 K. Raghavachari, A. P. Rendell, J. C. Burant, S. S. Iyengar, 
 J. Tomasi, M. Cossi, J. M. Millam, M. Klene, C. Adamo, R. Cammi, 
 J. W. Ochterski, R. L. Martin, K. Morokuma, O. Farkas, 
 J. B. Foresman, and D. J. Fox, Gaussian, Inc., Wallingford CT, 2016.
 
 ******************************************
 Gaussian 16:  ES64L-G16RevA.03 25-Dec-2016
                12-Mar-2024 
 ******************************************
 %nprocshared=4
 Will use up to    4 processors via shared memory.
 %mem=16GB
 %chk=cis-2-butene_JETWEI.chk
 -------------------------
 # opt freq b3lyp 6-31g(d)
 -------------------------
 1/18=20,19=15,26=3,38=1/1,3;
 2/9=110,12=2,17=6,18=5,40=1/2;
 3/5=1,6=6,7=1,11=2,25=1,30=1,71=1,74=-5/1,2,3;
 4//1;
 5/5=2,38=5/2;
 6/7=2,8=2,9=2,10=2,28=1/1;
 7//1,2,3,16;
 1/18=20,19=15,26=3/3(2);
 2/9=110/2;
 99//99;
 2/9=110/2;
 3/5=1,6=6,7=1,11=2,25=1,30=1,71=1,74=-5/1,2,3;
 4/5=5,16=3,69=1/1;
 5/5=2,38=5/2;
 7//1,2,3,16;
 1/18=20,19=15,26=3/3(-5);
 2/9=110/2;
 6/7=2,8=2,9=2,10=2,19=2,28=1/1;
 99/9=1/99;
 -------------------
 cis-2-butene_JETWEI
 -------------------
 Symbolic Z-matrix:
 Charge =  0 Multiplicity = 1
 C                     2.40587  -0.90991   1.36684 
 H                     2.76254  -0.40552   2.2405 
 H                     2.76254  -0.40552   0.49319 
 H                     1.33587  -0.9099    1.36684 
 C                    -2.99084  -2.32345   1.60874 
 H                    -2.63419  -3.33226   1.60874 
 H                    -2.63417  -1.81905   0.73509 
 H                    -4.06084  -2.32344   1.60874 
 C                    -1.25686  -2.78954   1.52928 
 C                     0.62253  -2.07577   1.71854 
 H                    -1.36818  -3.93838   1.68209 
 H                     1.76361  -2.79445   2.02511 
 
 Add virtual bond connecting atoms H12        and C10        Dist= 2.61D+00.
 Add virtual bond connecting atoms C10        and H4         Dist= 2.67D+00.
 Add virtual bond connecting atoms C10        and C9         Dist= 3.82D+00.

 GradGradGradGradGradGradGradGradGradGradGradGradGradGradGradGradGradGrad
 Berny optimization.
 Initialization pass.
                           ----------------------------
                           !    Initial Parameters    !
                           ! (Angstroms and Degrees)  !
 --------------------------                            --------------------------
 ! Name  Definition              Value          Derivative Info.                !
 --------------------------------------------------------------------------------
 ! R1    R(1,2)                  1.07           estimate D2E/DX2                !
 ! R2    R(1,3)                  1.07           estimate D2E/DX2                !
 ! R3    R(1,4)                  1.07           estimate D2E/DX2                !
 ! R4    R(4,10)                 1.4113         estimate D2E/DX2                !
 ! R5    R(5,6)                  1.07           estimate D2E/DX2                !
 ! R6    R(5,7)                  1.07           estimate D2E/DX2                !
 ! R7    R(5,8)                  1.07           estimate D2E/DX2                !
 ! R8    R(5,9)                  1.7973         estimate D2E/DX2                !
 ! R9    R(9,10)                 2.0193         estimate D2E/DX2                !
 ! R10   R(9,11)                 1.1643         estimate D2E/DX2                !
 ! R11   R(10,12)                1.383          estimate D2E/DX2                !
 ! A1    A(2,1,3)              109.4713         estimate D2E/DX2                !
 ! A2    A(2,1,4)              109.4712         estimate D2E/DX2                !
 ! A3    A(3,1,4)              109.4712         estimate D2E/DX2                !
 ! A4    A(1,4,10)             120.3602         estimate D2E/DX2                !
 ! A5    A(6,5,7)              109.4712         estimate D2E/DX2                !
 ! A6    A(6,5,8)              109.4712         estimate D2E/DX2                !
 ! A7    A(6,5,9)               55.5228         estimate D2E/DX2                !
 ! A8    A(7,5,8)              109.4712         estimate D2E/DX2                !
 ! A9    A(7,5,9)               76.3819         estimate D2E/DX2                !
 ! A10   A(8,5,9)              164.7484         estimate D2E/DX2                !
 ! A11   A(5,9,10)             143.3348         estimate D2E/DX2                !
 ! A12   A(5,9,11)              99.0817         estimate D2E/DX2                !
 ! A13   A(10,9,11)            115.1807         estimate D2E/DX2                !
 ! A14   A(4,10,9)             137.6535         estimate D2E/DX2                !
 ! A15   A(4,10,12)             93.8699         estimate D2E/DX2                !
 ! A16   A(9,10,12)            127.2317         estimate D2E/DX2                !
 ! D1    D(2,1,3,4)           -120.0            estimate D2E/DX2                !
 ! D2    D(2,1,4,10)          -103.2135         estimate D2E/DX2                !
 ! D3    D(3,1,4,10)           136.7865         estimate D2E/DX2                !
 ! D4    D(1,4,10,9)          -163.4547         estimate D2E/DX2                !
 ! D5    D(1,4,10,12)            3.5713         estimate D2E/DX2                !
 ! D6    D(6,5,9,10)          -165.7511         estimate D2E/DX2                !
 ! D7    D(6,5,9,11)            -6.3134         estimate D2E/DX2                !
 ! D8    D(7,5,9,10)            68.6284         estimate D2E/DX2                !
 ! D9    D(7,5,9,11)          -131.9339         estimate D2E/DX2                !
 ! D10   D(8,5,9,10)          -176.8333         estimate D2E/DX2                !
 ! D11   D(8,5,9,11)           -17.3957         estimate D2E/DX2                !
 ! D12   D(5,9,10,4)           -39.9369         estimate D2E/DX2                !
 ! D13   D(5,9,10,12)          156.4029         estimate D2E/DX2                !
 ! D14   D(11,9,10,4)          162.5977         estimate D2E/DX2                !
 ! D15   D(11,9,10,12)          -1.0624         estimate D2E/DX2                !
 --------------------------------------------------------------------------------
 Trust Radius=3.00D-01 FncErr=1.00D-07 GrdErr=1.00D-06 EigMax=2.50D+02 EigMin=1.00D-04
 Number of steps in this run=     52 maximum allowed number of steps=    100.
 GradGradGradGradGradGradGradGradGradGradGradGradGradGradGradGradGradGrad

                          Input orientation:                          
 ---------------------------------------------------------------------
 Center     Atomic      Atomic             Coordinates (Angstroms)
 Number     Number       Type             X           Y           Z
 ---------------------------------------------------------------------
      1          6           0        2.405866   -0.909915    1.366845
      2          1           0        2.762539   -0.405517    2.240496
      3          1           0        2.762539   -0.405517    0.493193
      4          1           0        1.335866   -0.909902    1.366845
      5          6           0       -2.990844   -2.323452    1.608739
      6          1           0       -2.634190   -3.332262    1.608739
      7          1           0       -2.634172   -1.819054    0.735088
      8          1           0       -4.060844   -2.323439    1.608739
      9          6           0       -1.256860   -2.789540    1.529279
     10          6           0        0.622529   -2.075769    1.718544
     11          1           0       -1.368176   -3.938380    1.682094
     12          1           0        1.763613   -2.794449    2.025112
 ---------------------------------------------------------------------
                    Distance matrix (angstroms):
                    1          2          3          4          5
     1  C    0.000000
     2  H    1.070000   0.000000
     3  H    1.070000   1.747303   0.000000
     4  H    1.070000   1.747303   1.747303   0.000000
     5  C    5.584003   6.097460   6.166388   4.558186   0.000000
     6  H    5.597182   6.171681   6.239789   4.657004   1.070000
     7  H    5.160197   5.778307   5.584003   4.121514   1.070000
     8  H    6.623814   7.115905   7.175056   5.584003   1.070000
     9  C    4.120065   4.727046   4.786712   3.206502   1.797290
    10  C    2.159445   2.764385   2.978401   1.411308   3.623516
    11  H    4.849163   5.464041   5.563939   4.072212   2.290508
    12  H    2.096968   2.598315   3.008592   2.041519   4.795839
                    6          7          8          9         10
     6  H    0.000000
     7  H    1.747302   0.000000
     8  H    1.747303   1.747303   0.000000
     9  C    1.482531   1.862678   2.843570   0.000000
    10  C    3.492427   3.411625   4.691202   2.019255   0.000000
    11  H    1.405543   2.644071   3.140682   1.164293   2.726454
    12  H    4.450088   4.685730   5.858287   3.060904   1.382953
                   11         12
    11  H    0.000000
    12  H    3.351767   0.000000
 Stoichiometry    C4H8
 Framework group  C1[X(C4H8)]
 Deg. of freedom    30
 Full point group                 C1      NOp   1
 Largest Abelian subgroup         C1      NOp   1
 Largest concise Abelian subgroup C1      NOp   1
                         Standard orientation:                         
 ---------------------------------------------------------------------
 Center     Atomic      Atomic             Coordinates (Angstroms)
 Number     Number       Type             X           Y           Z
 ---------------------------------------------------------------------
      1          6           0       -2.907993   -0.281716   -0.048191
      2          1           0       -3.382942   -0.420111    0.900582
      3          1           0       -3.412317   -0.867210   -0.788295
      4          1           0       -1.885850   -0.591548    0.016053
      5          6           0        2.668752   -0.478704    0.157222
      6          1           0        2.625881    0.555017   -0.115691
      7          1           0        2.164428   -1.064198   -0.582882
      8          1           0        3.690895   -0.788537    0.221466
      9          6           0        1.148584    0.432926   -0.139884
     10          6           0       -0.854300    0.367206    0.108164
     11          1           0        1.596665    1.499402   -0.271906
     12          1           0       -1.727021    1.438911    0.156803
 ---------------------------------------------------------------------
 Rotational constants (GHZ):          28.2188027           1.8580391           1.7752662
 Standard basis: 6-31G(d) (6D, 7F)
 There are    76 symmetry adapted cartesian basis functions of A   symmetry.
 There are    76 symmetry adapted basis functions of A   symmetry.
    76 basis functions,   144 primitive gaussians,    76 cartesian basis functions
    16 alpha electrons       16 beta electrons
       nuclear repulsion energy        93.9022636603 Hartrees.
 NAtoms=   12 NActive=   12 NUniq=   12 SFac= 1.00D+00 NAtFMM=   60 NAOKFM=F Big=F
 Integral buffers will be    131072 words long.
 Raffenetti 2 integral format.
 Two-electron integral symmetry is turned on.
 One-electron integrals computed using PRISM.
 NBasis=    76 RedAO= T EigKep=  1.20D-02  NBF=    76
 NBsUse=    76 1.00D-06 EigRej= -1.00D+00 NBFU=    76
 ExpMin= 1.61D-01 ExpMax= 3.05D+03 ExpMxC= 4.57D+02 IAcc=3 IRadAn=         5 AccDes= 0.00D+00
 Harris functional with IExCor=  402 and IRadAn=       5 diagonalized for initial guess.
 HarFok:  IExCor=  402 AccDes= 0.00D+00 IRadAn=         5 IDoV= 1 UseB2=F ITyADJ=14
 ICtDFT=  3500011 ScaDFX=  1.000000  1.000000  1.000000  1.000000
 FoFCou: FMM=F IPFlag=           0 FMFlag=      100000 FMFlg1=           0
         NFxFlg=           0 DoJE=T BraDBF=F KetDBF=T FulRan=T
         wScrn=  0.000000 ICntrl=       500 IOpCl=  0 I1Cent=   200000004 NGrid=           0
         NMat0=    1 NMatS0=      1 NMatT0=    0 NMatD0=    1 NMtDS0=    0 NMtDT0=    0
 Petite list used in FoFCou.
 Keep R1 ints in memory in canonical form, NReq=7884873.
 Requested convergence on RMS density matrix=1.00D-08 within 128 cycles.
 Requested convergence on MAX density matrix=1.00D-06.
 Requested convergence on             energy=1.00D-06.
 No special actions if energy rises.
 Integral accuracy reduced to 1.0D-05 until final iterations.
 EnCoef did     2 forward-backward iterations
 EnCoef did     3 forward-backward iterations
 EnCoef did   100 forward-backward iterations
 EnCoef did     9 forward-backward iterations
 EnCoef did     2 forward-backward iterations
 Initial convergence to 1.0D-05 achieved.  Increase integral accuracy.
 SCF Done:  E(RB3LYP) =  -156.570711587     A.U. after   23 cycles
            NFock= 23  Conv=0.75D-08     -V/T= 2.0088

 **********************************************************************

            Population analysis using the SCF density.

 **********************************************************************

 Orbital symmetries:
       Occupied  (A) (A) (A) (A) (A) (A) (A) (A) (A) (A) (A) (A)
                 (A) (A) (A) (A)
       Virtual   (A) (A) (A) (A) (A) (A) (A) (A) (A) (A) (A) (A)
                 (A) (A) (A) (A) (A) (A) (A) (A) (A) (A) (A) (A)
                 (A) (A) (A) (A) (A) (A) (A) (A) (A) (A) (A) (A)
                 (A) (A) (A) (A) (A) (A) (A) (A) (A) (A) (A) (A)
                 (A) (A) (A) (A) (A) (A) (A) (A) (A) (A) (A) (A)
 The electronic state is 1-A.
 Alpha  occ. eigenvalues --  -10.29034 -10.27737 -10.22281 -10.17745  -0.79156
 Alpha  occ. eigenvalues --   -0.71069  -0.62119  -0.57016  -0.46544  -0.44845
 Alpha  occ. eigenvalues --   -0.40112  -0.39004  -0.35583  -0.27675  -0.22176
 Alpha  occ. eigenvalues --   -0.17147
 Alpha virt. eigenvalues --   -0.12518  -0.10176  -0.04176   0.04573   0.07689
 Alpha virt. eigenvalues --    0.10383   0.15220   0.16396   0.19285   0.19883
 Alpha virt. eigenvalues --    0.21061   0.26516   0.49069   0.49985   0.51692
 Alpha virt. eigenvalues --    0.54278   0.54528   0.57864   0.64506   0.68251
 Alpha virt. eigenvalues --    0.70074   0.73332   0.75225   0.79041   0.81591
 Alpha virt. eigenvalues --    0.84874   0.85228   0.86555   0.88339   0.91703
 Alpha virt. eigenvalues --    0.94326   0.95066   0.98579   1.00303   1.04540
 Alpha virt. eigenvalues --    1.21337   1.46996   1.52986   1.62067   1.67126
 Alpha virt. eigenvalues --    1.69732   1.71075   1.72351   1.77635   1.80858
 Alpha virt. eigenvalues --    1.88087   1.88645   1.95288   2.02197   2.04049
 Alpha virt. eigenvalues --    2.12191   2.22352   2.26558   2.28964   2.36306
 Alpha virt. eigenvalues --    2.52808   3.88193   3.98162   4.15831   4.19062
          Condensed to atoms (all electrons):
               1          2          3          4          5          6
     1  C    5.652403   0.365225   0.354557   0.267856  -0.000011  -0.000027
     2  H    0.365225   0.528112  -0.037937  -0.031373  -0.000000   0.000000
     3  H    0.354557  -0.037937   0.526411  -0.009179   0.000000   0.000000
     4  H    0.267856  -0.031373  -0.009179   0.494946  -0.000088   0.000013
     5  C   -0.000011  -0.000000   0.000000  -0.000088   5.359497   0.287838
     6  H   -0.000027   0.000000   0.000000   0.000013   0.287838   0.645485
     7  H   -0.000045   0.000000   0.000001   0.000066   0.373866  -0.032876
     8  H    0.000001  -0.000000  -0.000000  -0.000000   0.340321  -0.039347
     9  C    0.003711  -0.000016  -0.000140   0.000673   0.216290  -0.099008
    10  C   -0.075827   0.005372  -0.005673   0.030088   0.000035   0.005448
    11  H   -0.000162   0.000002   0.000002   0.000003  -0.080747   0.026180
    12  H    0.038386  -0.005532   0.000410  -0.036011   0.000073  -0.000250
               7          8          9         10         11         12
     1  C   -0.000045   0.000001   0.003711  -0.075827  -0.000162   0.038386
     2  H    0.000000  -0.000000  -0.000016   0.005372   0.000002  -0.005532
     3  H    0.000001  -0.000000  -0.000140  -0.005673   0.000002   0.000410
     4  H    0.000066  -0.000000   0.000673   0.030088   0.000003  -0.036011
     5  C    0.373866   0.340321   0.216290   0.000035  -0.080747   0.000073
     6  H   -0.032876  -0.039347  -0.099008   0.005448   0.026180  -0.000250
     7  H    0.493794  -0.037088  -0.045004   0.002052   0.009691  -0.000050
     8  H   -0.037088   0.540243   0.001053  -0.000222  -0.002645   0.000003
     9  C   -0.045004   0.001053   5.896711   0.046624   0.201208   0.005693
    10  C    0.002052  -0.000222   0.046624   6.026607  -0.003516   0.167648
    11  H    0.009691  -0.002645   0.201208  -0.003516   0.703483  -0.002659
    12  H   -0.000050   0.000003   0.005693   0.167648  -0.002659   0.722392
 Mulliken charges:
               1
     1  C   -0.606068
     2  H    0.176145
     3  H    0.171546
     4  H    0.283007
     5  C   -0.497074
     6  H    0.206544
     7  H    0.235591
     8  H    0.197682
     9  C   -0.227794
    10  C   -0.198637
    11  H    0.149161
    12  H    0.109897
 Sum of Mulliken charges =  -0.00000
 Mulliken charges with hydrogens summed into heavy atoms:
               1
     1  C    0.024630
     5  C    0.142743
     9  C   -0.078634
    10  C   -0.088740
 Electronic spatial extent (au):  <R**2>=            691.4566
 Charge=             -0.0000 electrons
 Dipole moment (field-independent basis, Debye):
    X=              2.3356    Y=              0.2173    Z=             -0.3378  Tot=              2.3699
 Quadrupole moment (field-independent basis, Debye-Ang):
   XX=            -23.0295   YY=            -27.5085   ZZ=            -29.9367
   XY=              1.8751   XZ=             -2.2321   YZ=              0.3953
 Traceless Quadrupole moment (field-independent basis, Debye-Ang):
   XX=              3.7954   YY=             -0.6836   ZZ=             -3.1118
   XY=              1.8751   XZ=             -2.2321   YZ=              0.3953
 Octapole moment (field-independent basis, Debye-Ang**2):
  XXX=             33.1474  YYY=             -1.4033  ZZZ=             -0.5224  XYY=              3.4537
  XXY=            -10.5563  XXZ=              0.8934  XZZ=             -2.6540  YZZ=             -1.6392
  YYZ=             -1.9040  XYZ=              0.0996
 Hexadecapole moment (field-independent basis, Debye-Ang**3):
 XXXX=           -792.0712 YYYY=            -87.8273 ZZZZ=            -42.4241 XXXY=             16.0042
 XXXZ=            -13.9253 YYYX=              1.6089 YYYZ=              0.6255 ZZZX=             -4.2372
 ZZZY=              0.8558 XXYY=           -150.2880 XXZZ=           -151.6938 YYZZ=            -21.6775
 XXYZ=              4.6065 YYXZ=             -1.2778 ZZXY=              3.7181
 N-N= 9.390226366027D+01 E-N=-5.492489060901D+02  KE= 1.552042083690D+02
 Calling FoFJK, ICntrl=      2127 FMM=F ISym2X=0 I1Cent= 0 IOpClX= 0 NMat=1 NMatS=1 NMatT=0.
 ***** Axes restored to original set *****
 -------------------------------------------------------------------
 Center     Atomic                   Forces (Hartrees/Bohr)
 Number     Number              X              Y              Z
 -------------------------------------------------------------------
      1        6           0.013480356    0.021134429   -0.007877301
      2        1           0.012823963   -0.021817880    0.025096944
      3        1          -0.000556652   -0.008228771   -0.023028023
      4        1          -0.026968662    0.043170793   -0.002360882
      5        6           0.073689540    0.005303024   -0.029329138
      6        1          -0.037460772   -0.035199571   -0.014753884
      7        1          -0.011475857    0.021192329   -0.014471597
      8        1          -0.017548952    0.002013125    0.028060869
      9        6          -0.013443965   -0.020149782    0.009086224
     10        6           0.048662453   -0.044171722    0.013071141
     11        1           0.024485371    0.017511143    0.018303131
     12        1          -0.065686822    0.019242882   -0.001797484
 -------------------------------------------------------------------
 Cartesian Forces:  Max     0.073689540 RMS     0.027544213

 GradGradGradGradGradGradGradGradGradGradGradGradGradGradGradGradGradGrad
 Berny optimization.
 FormGI is forming the generalized inverse of G from B-inverse, IUseBI=4.
 Internal  Forces:  Max     0.064597077 RMS     0.023683873
 Search for a local minimum.
 Step number   1 out of a maximum of   52
 All quantities printed in internal units (Hartrees-Bohrs-Radians)
 Mixed Optimization -- RFO/linear search
 Second derivative matrix not updated -- first step.
 ITU=  0
     Eigenvalues ---    0.00230   0.00230   0.00230   0.00324   0.00352
     Eigenvalues ---    0.00499   0.00527   0.04255   0.04750   0.08515
     Eigenvalues ---    0.12927   0.13977   0.14042   0.14994   0.15708
     Eigenvalues ---    0.15866   0.16000   0.16000   0.16000   0.16000
     Eigenvalues ---    0.16000   0.22210   0.25000   0.27467   0.37230
     Eigenvalues ---    0.37230   0.37230   0.37230   0.37230   0.37230
 RFO step:  Lambda=-1.04673181D-01 EMin= 2.30000000D-03
 Linear search not attempted -- first point.
 Maximum step size (   0.300) exceeded in Quadratic search.
    -- Step size scaled by   0.577
 Iteration  1 RMS(Cart)=  0.10587001 RMS(Int)=  0.01164754
 Iteration  2 RMS(Cart)=  0.01144610 RMS(Int)=  0.00182344
 Iteration  3 RMS(Cart)=  0.00013417 RMS(Int)=  0.00181809
 Iteration  4 RMS(Cart)=  0.00000038 RMS(Int)=  0.00181809
 Variable       Old X    -DE/DX   Delta X   Delta X   Delta X     New X
                                 (Linear)    (Quad)   (Total)
    R1        2.02201   0.01448   0.00000   0.01753   0.01753   2.03954
    R2        2.02201   0.01474   0.00000   0.01784   0.01784   2.03985
    R3        2.02201   0.02575   0.00000   0.03117   0.03117   2.05318
    R4        2.66699   0.02972   0.00000   0.07021   0.07021   2.73719
    R5        2.02201   0.02070   0.00000   0.02506   0.02506   2.04707
    R6        2.02201   0.01798   0.00000   0.02177   0.02177   2.04378
    R7        2.02201   0.01755   0.00000   0.02125   0.02125   2.04325
    R8        3.39639  -0.01003   0.00000  -0.02364  -0.02364   3.37275
    R9        3.81584  -0.01339   0.00000  -0.04074  -0.04074   3.77510
   R10        2.20020  -0.01722   0.00000  -0.02621  -0.02621   2.17399
   R11        2.61340  -0.06460   0.00000  -0.14651  -0.14651   2.46690
    A1        1.91063   0.02494   0.00000   0.07460   0.07311   1.98374
    A2        1.91063   0.00896   0.00000   0.03913   0.03691   1.94754
    A3        1.91063  -0.00615   0.00000  -0.00016  -0.00156   1.90907
    A4        2.10068  -0.03847   0.00000  -0.06263  -0.06263   2.03805
    A5        1.91063   0.02233   0.00000   0.03205   0.02477   1.93540
    A6        1.91063  -0.02531   0.00000  -0.05964  -0.06024   1.85039
    A7        0.96905   0.05594   0.00000   0.12674   0.12936   1.09841
    A8        1.91063  -0.01773   0.00000  -0.03959  -0.04413   1.86650
    A9        1.33312   0.00909   0.00000   0.03068   0.03041   1.36353
   A10        2.87540   0.03235   0.00000   0.07460   0.07321   2.94862
   A11        2.50166  -0.02213   0.00000  -0.04049  -0.04086   2.46080
   A12        1.72930   0.03504   0.00000   0.07037   0.06983   1.79913
   A13        2.01028  -0.01602   0.00000  -0.04201  -0.04217   1.96811
   A14        2.40251   0.01159   0.00000   0.02667   0.02657   2.42908
   A15        1.63834   0.02280   0.00000   0.05121   0.05113   1.68947
   A16        2.22061  -0.03326   0.00000  -0.07171  -0.07193   2.14869
    D1       -2.09440  -0.02249   0.00000  -0.09351  -0.09504  -2.18943
    D2       -1.80142   0.02834   0.00000   0.12188   0.12215  -1.67927
    D3        2.38737  -0.00393   0.00000   0.00664   0.00637   2.39375
    D4       -2.85282   0.02514   0.00000   0.12825   0.12736  -2.72546
    D5        0.06233   0.02644   0.00000   0.15022   0.15111   0.21344
    D6       -2.89290  -0.01635   0.00000  -0.07782  -0.07448  -2.96738
    D7       -0.11019  -0.02672   0.00000  -0.12570  -0.12323  -0.23342
    D8        1.19779   0.00476   0.00000   0.00715   0.00429   1.20208
    D9       -2.30268  -0.00560   0.00000  -0.04073  -0.04446  -2.34714
   D10       -3.08632   0.01408   0.00000   0.07199   0.07281  -3.01351
   D11       -0.30361   0.00371   0.00000   0.02411   0.02406  -0.27955
   D12       -0.69703   0.00626   0.00000   0.02678   0.02707  -0.66996
   D13        2.72975  -0.00325   0.00000  -0.01817  -0.01715   2.71260
   D14        2.83787   0.01228   0.00000   0.06688   0.06585   2.90372
   D15       -0.01854   0.00276   0.00000   0.02193   0.02163   0.00309
         Item               Value     Threshold  Converged?
 Maximum Force            0.064597     0.000450     NO 
 RMS     Force            0.023684     0.000300     NO 
 Maximum Displacement     0.370883     0.001800     NO 
 RMS     Displacement     0.110020     0.001200     NO 
 Predicted change in Energy=-5.267916D-02
 GradGradGradGradGradGradGradGradGradGradGradGradGradGradGradGradGradGrad

                          Input orientation:                          
 ---------------------------------------------------------------------
 Center     Atomic      Atomic             Coordinates (Angstroms)
 Number     Number       Type             X           Y           Z
 ---------------------------------------------------------------------
      1          6           0        2.390969   -0.891793    1.320545
      2          1           0        2.882073   -0.601780    2.236815
      3          1           0        2.722829   -0.336251    0.456579
      4          1           0        1.310414   -0.815826    1.404826
      5          6           0       -2.954567   -2.345762    1.596536
      6          1           0       -2.731862   -3.404894    1.550734
      7          1           0       -2.619478   -1.842096    0.700032
      8          1           0       -4.032826   -2.268196    1.617206
      9          6           0       -1.232758   -2.811662    1.535273
     10          6           0        0.594871   -2.030668    1.736784
     11          1           0       -1.260689   -3.941023    1.752613
     12          1           0        1.638888   -2.737246    2.075769
 ---------------------------------------------------------------------
                    Distance matrix (angstroms):
                    1          2          3          4          5
     1  C    0.000000
     2  H    1.079278   0.000000
     3  H    1.079442   1.806959   0.000000
     4  H    1.086496   1.791126   1.767507   0.000000
     5  C    5.546616   6.125177   6.129474   4.535143   0.000000
     6  H    5.710697   6.312244   6.353534   4.802557   1.083262
     7  H    5.137382   5.845267   5.555815   4.122380   1.081520
     8  H    6.576293   7.139796   7.121680   5.541182   1.081243
     9  C    4.106507   4.723089   4.789353   3.235444   1.784781
    10  C    2.167085   2.742817   3.006356   1.448460   3.566155
    11  H    4.776934   5.342984   5.526527   4.061821   2.332046
    12  H    2.131123   2.476219   3.092163   2.061531   4.634949
                    6          7          8          9         10
     6  H    0.000000
     7  H    1.782881   0.000000
     8  H    1.728875   1.737908   0.000000
     9  C    1.612289   1.886976   2.853498   0.000000
    10  C    3.604201   3.382670   4.635331   1.997695   0.000000
    11  H    1.578777   2.712882   3.240590   1.150424   2.663234
    12  H    4.452513   4.563730   5.709521   2.923016   1.305425
                   11         12
    11  H    0.000000
    12  H    3.156115   0.000000
 Stoichiometry    C4H8
 Framework group  C1[X(C4H8)]
 Deg. of freedom    30
 Full point group                 C1      NOp   1
 Largest Abelian subgroup         C1      NOp   1
 Largest concise Abelian subgroup C1      NOp   1
                         Standard orientation:                         
 ---------------------------------------------------------------------
 Center     Atomic      Atomic             Coordinates (Angstroms)
 Number     Number       Type             X           Y           Z
 ---------------------------------------------------------------------
      1          6           0       -2.899228   -0.287228   -0.064590
      2          1           0       -3.436963   -0.118697    0.855887
      3          1           0       -3.401406   -0.960501   -0.742614
      4          1           0       -1.891500   -0.648222    0.121530
      5          6           0        2.639671   -0.464288    0.168220
      6          1           0        2.748734    0.543757   -0.213102
      7          1           0        2.149546   -1.099898   -0.556668
      8          1           0        3.643462   -0.845881    0.294221
      9          6           0        1.140228    0.445188   -0.163392
     10          6           0       -0.833963    0.341550    0.124033
     11          1           0        1.514590    1.524792   -0.296740
     12          1           0       -1.606713    1.393319    0.151861
 ---------------------------------------------------------------------
 Rotational constants (GHZ):          28.0795148           1.8794213           1.7955688
 Standard basis: 6-31G(d) (6D, 7F)
 There are    76 symmetry adapted cartesian basis functions of A   symmetry.
 There are    76 symmetry adapted basis functions of A   symmetry.
    76 basis functions,   144 primitive gaussians,    76 cartesian basis functions
    16 alpha electrons       16 beta electrons
       nuclear repulsion energy        93.8671924207 Hartrees.
 NAtoms=   12 NActive=   12 NUniq=   12 SFac= 1.00D+00 NAtFMM=   60 NAOKFM=F Big=F
 Integral buffers will be    131072 words long.
 Raffenetti 2 integral format.
 Two-electron integral symmetry is turned on.
 One-electron integrals computed using PRISM.
 NBasis=    76 RedAO= T EigKep=  1.26D-02  NBF=    76
 NBsUse=    76 1.00D-06 EigRej= -1.00D+00 NBFU=    76
 Initial guess from the checkpoint file:  "cis-2-butene_JETWEI.chk"
 B after Tr=     0.000000    0.000000   -0.000000
         Rot=    0.999739    0.022783    0.000293    0.001527 Ang=   2.62 deg.
 ExpMin= 1.61D-01 ExpMax= 3.05D+03 ExpMxC= 4.57D+02 IAcc=2 IRadAn=         4 AccDes= 0.00D+00
 Harris functional with IExCor=  402 and IRadAn=       4 diagonalized for initial guess.
 HarFok:  IExCor=  402 AccDes= 0.00D+00 IRadAn=         4 IDoV= 1 UseB2=F ITyADJ=14
 ICtDFT=  3500011 ScaDFX=  1.000000  1.000000  1.000000  1.000000
 FoFCou: FMM=F IPFlag=           0 FMFlag=      100000 FMFlg1=           0
         NFxFlg=           0 DoJE=T BraDBF=F KetDBF=T FulRan=T
         wScrn=  0.000000 ICntrl=       500 IOpCl=  0 I1Cent=   200000004 NGrid=           0
         NMat0=    1 NMatS0=      1 NMatT0=    0 NMatD0=    1 NMtDS0=    0 NMtDT0=    0
 Petite list used in FoFCou.
 Keep R1 ints in memory in canonical form, NReq=7884873.
 Requested convergence on RMS density matrix=1.00D-08 within 128 cycles.
 Requested convergence on MAX density matrix=1.00D-06.
 Requested convergence on             energy=1.00D-06.
 No special actions if energy rises.
 Integral accuracy reduced to 1.0D-05 until final iterations.
 Initial convergence to 1.0D-05 achieved.  Increase integral accuracy.
 SCF Done:  E(RB3LYP) =  -156.629372703     A.U. after   18 cycles
            NFock= 18  Conv=0.96D-08     -V/T= 2.0108
 Calling FoFJK, ICntrl=      2127 FMM=F ISym2X=0 I1Cent= 0 IOpClX= 0 NMat=1 NMatS=1 NMatT=0.
 ***** Axes restored to original set *****
 -------------------------------------------------------------------
 Center     Atomic                   Forces (Hartrees/Bohr)
 Number     Number              X              Y              Z
 -------------------------------------------------------------------
      1        6          -0.005936621    0.021566147   -0.005849865
      2        1           0.006545324   -0.024081946    0.010585364
      3        1          -0.002445736   -0.010745821   -0.015638958
      4        1          -0.011690289    0.046725183    0.006519704
      5        6           0.081833649   -0.014635511   -0.038469081
      6        1          -0.031826312   -0.021006546   -0.019553470
      7        1          -0.015357616    0.009556181   -0.013620590
      8        1          -0.008720964    0.010185914    0.035013984
      9        6           0.002386159   -0.004763571    0.014292215
     10        6           0.039548465   -0.047797016    0.016510601
     11        1           0.012789140    0.021014861    0.017877270
     12        1          -0.067125198    0.013982125   -0.007667175
 -------------------------------------------------------------------
 Cartesian Forces:  Max     0.081833649 RMS     0.026968301

 GradGradGradGradGradGradGradGradGradGradGradGradGradGradGradGradGradGrad
 Berny optimization.
 Using GEDIIS/GDIIS optimizer.
 FormGI is forming the generalized inverse of G from B-inverse, IUseBI=4.
 Internal  Forces:  Max     0.063242505 RMS     0.022932737
 Search for a local minimum.
 Step number   2 out of a maximum of   52
 All quantities printed in internal units (Hartrees-Bohrs-Radians)
 Mixed Optimization -- RFO/linear search
 Update second derivatives using D2CorX and points    1    2
 DE= -5.87D-02 DEPred=-5.27D-02 R= 1.11D+00
 TightC=F SS=  1.41D+00  RLast= 4.32D-01 DXNew= 5.0454D-01 1.2959D+00
 Trust test= 1.11D+00 RLast= 4.32D-01 DXMaxT set to 5.05D-01
 ITU=  1  0
 Use linear search instead of GDIIS.
 Linear search step of   0.600 exceeds DXMaxT=   0.505 but not scaled.
 Quartic linear search produced a step of  2.00000.
 Iteration  1 RMS(Cart)=  0.13750371 RMS(Int)=  0.05695675
 Iteration  2 RMS(Cart)=  0.08597585 RMS(Int)=  0.01469931
 Iteration  3 RMS(Cart)=  0.01080855 RMS(Int)=  0.01014859
 Iteration  4 RMS(Cart)=  0.00065046 RMS(Int)=  0.01013020
 Iteration  5 RMS(Cart)=  0.00000647 RMS(Int)=  0.01013020
 Iteration  6 RMS(Cart)=  0.00000008 RMS(Int)=  0.01013020
 Variable       Old X    -DE/DX   Delta X   Delta X   Delta X     New X
                                 (Linear)    (Quad)   (Total)
    R1        2.03954   0.00549   0.03506   0.00000   0.03506   2.07460
    R2        2.03985   0.00623   0.03568   0.00000   0.03568   2.07553
    R3        2.05318  -0.00005   0.06234   0.00000   0.06234   2.11552
    R4        2.73719   0.02239   0.14042   0.00000   0.14042   2.87761
    R5        2.04707   0.01482   0.05012   0.00000   0.05012   2.09719
    R6        2.04378   0.01098   0.04354   0.00000   0.04354   2.08731
    R7        2.04325   0.01010   0.04249   0.00000   0.04249   2.08575
    R8        3.37275  -0.03042  -0.04728   0.00000  -0.04728   3.32547
    R9        3.77510  -0.03729  -0.08149   0.00000  -0.08149   3.69361
   R10        2.17399  -0.01756  -0.05242   0.00000  -0.05242   2.12157
   R11        2.46690  -0.06324  -0.29301   0.00000  -0.29301   2.17388
    A1        1.98374   0.02027   0.14622   0.00000   0.13647   2.12021
    A2        1.94754   0.00469   0.07382   0.00000   0.05993   2.00748
    A3        1.90907  -0.00103  -0.00313   0.00000  -0.01377   1.89530
    A4        2.03805  -0.04668  -0.12526   0.00000  -0.12526   1.91279
    A5        1.93540   0.00825   0.04954   0.00000   0.00963   1.94504
    A6        1.85039  -0.01802  -0.12048   0.00000  -0.12470   1.72570
    A7        1.09841   0.05027   0.25871   0.00000   0.26456   1.36297
    A8        1.86650  -0.02442  -0.08826   0.00000  -0.10803   1.75847
    A9        1.36353   0.01109   0.06083   0.00000   0.05248   1.41601
   A10        2.94862   0.03252   0.14643   0.00000   0.13863   3.08725
   A11        2.46080  -0.01915  -0.08173   0.00000  -0.08367   2.37714
   A12        1.79913   0.02243   0.13965   0.00000   0.13569   1.93482
   A13        1.96811  -0.00699  -0.08434   0.00000  -0.08493   1.88318
   A14        2.42908   0.00181   0.05315   0.00000   0.05234   2.48142
   A15        1.68947   0.03404   0.10226   0.00000   0.10160   1.79107
   A16        2.14869  -0.03562  -0.14385   0.00000  -0.14499   2.00370
    D1       -2.18943  -0.02046  -0.19008   0.00000  -0.19852  -2.38795
    D2       -1.67927   0.02188   0.24429   0.00000   0.24436  -1.43491
    D3        2.39375  -0.00715   0.01275   0.00000   0.01268   2.40643
    D4       -2.72546   0.02644   0.25473   0.00000   0.25003  -2.47543
    D5        0.21344   0.02491   0.30222   0.00000   0.30692   0.52037
    D6       -2.96738  -0.01573  -0.14895   0.00000  -0.12736  -3.09474
    D7       -0.23342  -0.02634  -0.24645   0.00000  -0.23031  -0.46373
    D8        1.20208   0.00981   0.00858   0.00000  -0.00802   1.19407
    D9       -2.34714  -0.00079  -0.08892   0.00000  -0.11097  -2.45811
   D10       -3.01351   0.01398   0.14562   0.00000   0.14880  -2.86471
   D11       -0.27955   0.00338   0.04812   0.00000   0.04585  -0.23370
   D12       -0.66996   0.00571   0.05414   0.00000   0.05656  -0.61340
   D13        2.71260   0.00084  -0.03430   0.00000  -0.02759   2.68501
   D14        2.90372   0.01328   0.13171   0.00000   0.12500   3.02872
   D15        0.00309   0.00841   0.04327   0.00000   0.04085   0.04394
         Item               Value     Threshold  Converged?
 Maximum Force            0.063243     0.000450     NO 
 RMS     Force            0.022933     0.000300     NO 
 Maximum Displacement     0.776162     0.001800     NO 
 RMS     Displacement     0.220718     0.001200     NO 
 Predicted change in Energy=-1.040605D-01
 GradGradGradGradGradGradGradGradGradGradGradGradGradGradGradGradGradGrad

                          Input orientation:                          
 ---------------------------------------------------------------------
 Center     Atomic      Atomic             Coordinates (Angstroms)
 Number     Number       Type             X           Y           Z
 ---------------------------------------------------------------------
      1          6           0        2.333111   -0.850683    1.249167
      2          1           0        3.015569   -1.012507    2.093739
      3          1           0        2.603813   -0.195182    0.410503
      4          1           0        1.269317   -0.647162    1.532313
      5          6           0       -2.858639   -2.395415    1.575448
      6          1           0       -2.926504   -3.492681    1.423708
      7          1           0       -2.544029   -1.878677    0.651299
      8          1           0       -3.936501   -2.158161    1.587300
      9          6           0       -1.163027   -2.866115    1.565230
     10          6           0        0.553311   -1.962728    1.806970
     11          1           0       -1.041964   -3.931596    1.897664
     12          1           0        1.403409   -2.636291    2.190373
 ---------------------------------------------------------------------
                    Distance matrix (angstroms):
                    1          2          3          4          5
     1  C    0.000000
     2  H    1.097833   0.000000
     3  H    1.098326   1.915946   0.000000
     4  H    1.119487   1.870314   1.801006   0.000000
     5  C    5.426502   6.057011   6.003041   4.483109   0.000000
     6  H    5.888478   6.473673   6.518013   5.070867   1.109785
     7  H    5.020031   5.808616   5.421477   4.102977   1.104559
     8  H    6.413413   7.064013   6.929202   5.420948   1.103729
     9  C    4.047819   4.601722   4.759869   3.292587   1.759762
    10  C    2.171515   2.654783   3.046128   1.522765   3.447060
    11  H    4.615594   5.002310   5.428087   4.032742   2.400829
    12  H    2.222298   2.290213   3.250833   2.099442   4.312911
                    6          7          8          9         10
     6  H    0.000000
     7  H    1.829730   0.000000
     8  H    1.681606   1.700937   0.000000
     9  C    1.876824   1.928074   2.862489   0.000000
    10  C    3.820571   3.306986   4.499429   1.954574   0.000000
    11  H    1.992178   2.832685   3.408774   1.122684   2.535660
    12  H    4.479880   4.304067   5.395085   2.651455   1.150370
                   11         12
    11  H    0.000000
    12  H    2.782687   0.000000
 Stoichiometry    C4H8
 Framework group  C1[X(C4H8)]
 Deg. of freedom    30
 Full point group                 C1      NOp   1
 Largest Abelian subgroup         C1      NOp   1
 Largest concise Abelian subgroup C1      NOp   1
                         Standard orientation:                         
 ---------------------------------------------------------------------
 Center     Atomic      Atomic             Coordinates (Angstroms)
 Number     Number       Type             X           Y           Z
 ---------------------------------------------------------------------
      1          6           0       -2.854785   -0.316766   -0.092383
      2          1           0       -3.427025    0.365849    0.549346
      3          1           0       -3.343647   -1.132678   -0.641583
      4          1           0       -1.907155   -0.707201    0.357958
      5          6           0        2.564013   -0.440422    0.168871
      6          1           0        2.979074    0.429373   -0.381406
      7          1           0        2.076332   -1.156425   -0.516372
      8          1           0        3.507284   -0.971472    0.384382
      9          6           0        1.111844    0.482739   -0.199555
     10          6           0       -0.797763    0.321433    0.184817
     11          1           0        1.349980    1.573991   -0.313044
     12          1           0       -1.374694    1.316658    0.190220
 ---------------------------------------------------------------------
 Rotational constants (GHZ):          26.4743508           1.9571954           1.8606343
 Standard basis: 6-31G(d) (6D, 7F)
 There are    76 symmetry adapted cartesian basis functions of A   symmetry.
 There are    76 symmetry adapted basis functions of A   symmetry.
    76 basis functions,   144 primitive gaussians,    76 cartesian basis functions
    16 alpha electrons       16 beta electrons
       nuclear repulsion energy        94.2692878923 Hartrees.
 NAtoms=   12 NActive=   12 NUniq=   12 SFac= 1.00D+00 NAtFMM=   60 NAOKFM=F Big=F
 Integral buffers will be    131072 words long.
 Raffenetti 2 integral format.
 Two-electron integral symmetry is turned on.
 One-electron integrals computed using PRISM.
 NBasis=    76 RedAO= T EigKep=  1.17D-02  NBF=    76
 NBsUse=    76 1.00D-06 EigRej= -1.00D+00 NBFU=    76
 Initial guess from the checkpoint file:  "cis-2-butene_JETWEI.chk"
 B after Tr=    -0.000000    0.000000    0.000000
         Rot=    0.999547    0.029963    0.000352    0.002629 Ang=   3.45 deg.
 ExpMin= 1.61D-01 ExpMax= 3.05D+03 ExpMxC= 4.57D+02 IAcc=2 IRadAn=         4 AccDes= 0.00D+00
 Harris functional with IExCor=  402 and IRadAn=       4 diagonalized for initial guess.
 HarFok:  IExCor=  402 AccDes= 0.00D+00 IRadAn=         4 IDoV= 1 UseB2=F ITyADJ=14
 ICtDFT=  3500011 ScaDFX=  1.000000  1.000000  1.000000  1.000000
 FoFCou: FMM=F IPFlag=           0 FMFlag=      100000 FMFlg1=           0
         NFxFlg=           0 DoJE=T BraDBF=F KetDBF=T FulRan=T
         wScrn=  0.000000 ICntrl=       500 IOpCl=  0 I1Cent=   200000004 NGrid=           0
         NMat0=    1 NMatS0=      1 NMatT0=    0 NMatD0=    1 NMtDS0=    0 NMtDT0=    0
 Petite list used in FoFCou.
 Keep R1 ints in memory in canonical form, NReq=7884873.
 Requested convergence on RMS density matrix=1.00D-08 within 128 cycles.
 Requested convergence on MAX density matrix=1.00D-06.
 Requested convergence on             energy=1.00D-06.
 No special actions if energy rises.
 Integral accuracy reduced to 1.0D-05 until final iterations.
 Initial convergence to 1.0D-05 achieved.  Increase integral accuracy.
 SCF Done:  E(RB3LYP) =  -156.722660122     A.U. after   18 cycles
            NFock= 18  Conv=0.79D-08     -V/T= 2.0135
 Calling FoFJK, ICntrl=      2127 FMM=F ISym2X=0 I1Cent= 0 IOpClX= 0 NMat=1 NMatS=1 NMatT=0.
 ***** Axes restored to original set *****
 -------------------------------------------------------------------
 Center     Atomic                   Forces (Hartrees/Bohr)
 Number     Number              X              Y              Z
 -------------------------------------------------------------------
      1        6          -0.034047295    0.014769376    0.010149344
      2        1          -0.006494709   -0.011324261   -0.011345366
      3        1          -0.003522545   -0.019064846   -0.004279912
      4        1           0.016152270    0.037962909    0.017048853
      5        6           0.077940881   -0.038744784   -0.058805796
      6        1          -0.012215011    0.001431440   -0.017442506
      7        1          -0.018437918   -0.004595050   -0.009576017
      8        1           0.007062815    0.017353821    0.044175489
      9        6           0.024401087    0.033953557    0.032020982
     10        6          -0.010526343   -0.044202976   -0.009127901
     11        1          -0.005480991    0.015174812    0.013541352
     12        1          -0.034832240   -0.002714000   -0.006358523
 -------------------------------------------------------------------
 Cartesian Forces:  Max     0.077940881 RMS     0.026372159

 GradGradGradGradGradGradGradGradGradGradGradGradGradGradGradGradGradGrad
 Berny optimization.
 Using GEDIIS/GDIIS optimizer.
 FormGI is forming the generalized inverse of G from B-inverse, IUseBI=4.
 Internal  Forces:  Max     0.076181867 RMS     0.023385878
 Search for a local minimum.
 Step number   3 out of a maximum of   52
 All quantities printed in internal units (Hartrees-Bohrs-Radians)
 Mixed Optimization -- RFO/linear search
 Update second derivatives using D2CorX and points    2    3
 ITU=  0  1  0
 Use linear search instead of GDIIS.
 Linear search step of   0.510 exceeds DXMaxT=   0.505 but not scaled.
 Quartic linear search produced a step of  0.85199.
 Iteration  1 RMS(Cart)=  0.01750014 RMS(Int)=  0.10229553
 Iteration  2 RMS(Cart)=  0.00737682 RMS(Int)=  0.09794341
 Iteration  3 RMS(Cart)=  0.00668881 RMS(Int)=  0.09400921
 Iteration  4 RMS(Cart)=  0.00609657 RMS(Int)=  0.09043405
 Iteration  5 RMS(Cart)=  0.00559534 RMS(Int)=  0.08716188
 Iteration  6 RMS(Cart)=  0.00515543 RMS(Int)=  0.08415764
 Iteration  7 RMS(Cart)=  0.00474264 RMS(Int)=  0.08140625
 Iteration  8 RMS(Cart)=  0.00434241 RMS(Int)=  0.07889085
 Iteration  9 RMS(Cart)=  0.00399596 RMS(Int)=  0.07657930
 Iteration 10 RMS(Cart)=  0.00369329 RMS(Int)=  0.07444547
 Iteration 11 RMS(Cart)=  0.00342669 RMS(Int)=  0.07246783
 Iteration 12 RMS(Cart)=  0.00319008 RMS(Int)=  0.07062846
 Iteration 13 RMS(Cart)=  0.00297859 RMS(Int)=  0.06891230
 Iteration 14 RMS(Cart)=  0.00278824 RMS(Int)=  0.06730658
 Iteration 15 RMS(Cart)=  0.00261565 RMS(Int)=  0.06580039
 Iteration 16 RMS(Cart)=  0.00245785 RMS(Int)=  0.06438426
 Iteration 17 RMS(Cart)=  0.00231194 RMS(Int)=  0.06304966
 Iteration 18 RMS(Cart)=  0.00217446 RMS(Int)=  0.06178760
 Iteration 19 RMS(Cart)=  0.00203925 RMS(Int)=  0.06057667
 Iteration 20 RMS(Cart)=  0.00187976 RMS(Int)=  0.68008837
 Iteration 21 RMS(Cart)=  0.00007210 RMS(Int)=  0.68005131
 Iteration 22 RMS(Cart)=  0.00007165 RMS(Int)=  0.68001441
 Iteration 23 RMS(Cart)=  0.00007114 RMS(Int)=  0.67997769
 Iteration 24 RMS(Cart)=  0.00007076 RMS(Int)=  0.67994109
 Iteration 25 RMS(Cart)=  0.00007033 RMS(Int)=  0.67990464
 Iteration 26 RMS(Cart)=  0.00006990 RMS(Int)=  0.67986831
 Iteration 27 RMS(Cart)=  0.00006948 RMS(Int)=  0.67983212
 Iteration 28 RMS(Cart)=  0.00006906 RMS(Int)=  0.67979604
 Iteration 29 RMS(Cart)=  0.00006865 RMS(Int)=  0.67976006
 Iteration 30 RMS(Cart)=  0.00006824 RMS(Int)=  0.67972419
 Iteration 31 RMS(Cart)=  0.00006783 RMS(Int)=  0.67968839
 Iteration 32 RMS(Cart)=  0.00006742 RMS(Int)=  0.67965267
 Iteration 33 RMS(Cart)=  0.00006702 RMS(Int)=  0.67961699
 Iteration 34 RMS(Cart)=  0.00006663 RMS(Int)=  0.67958134
 Iteration 35 RMS(Cart)=  0.00006623 RMS(Int)=  0.67954569
 Iteration 36 RMS(Cart)=  0.00006584 RMS(Int)=  0.67951000
 Iteration 37 RMS(Cart)=  0.00006546 RMS(Int)=  0.67947423
 Iteration 38 RMS(Cart)=  0.00006508 RMS(Int)=  0.67943831
 Iteration 39 RMS(Cart)=  0.00006470 RMS(Int)=  0.67940217
 Iteration 40 RMS(Cart)=  0.00006432 RMS(Int)=  0.67936568
 Iteration 41 RMS(Cart)=  0.00006395 RMS(Int)=  0.67932864
 Iteration 42 RMS(Cart)=  0.00006357 RMS(Int)=  0.67929077
 Iteration 43 RMS(Cart)=  0.00006321 RMS(Int)=  0.67925150
 Iteration 44 RMS(Cart)=  0.00006284 RMS(Int)=  0.67920965
 Iteration 45 RMS(Cart)=  0.00006228 RMS(Int)=  0.67916213
 Iteration 46 RMS(Cart)=  0.00006208 RMS(Int)=  0.67909042
 Iteration 47 RMS(Cart)=  0.00005925 RMS(Int)=  0.05875702
 Iteration 48 RMS(Cart)=  0.00203174 RMS(Int)=  0.67891358
 Iteration 49 RMS(Cart)=  0.00002206 RMS(Int)=  0.67890224
 Iteration 50 RMS(Cart)=  0.00002196 RMS(Int)=  0.67889095
 Iteration 51 RMS(Cart)=  0.00002186 RMS(Int)=  0.67887971
 Iteration 52 RMS(Cart)=  0.00002176 RMS(Int)=  0.67886852
 Iteration 53 RMS(Cart)=  0.00002166 RMS(Int)=  0.67885738
 Iteration 54 RMS(Cart)=  0.00002156 RMS(Int)=  0.67884628
 Iteration 55 RMS(Cart)=  0.00002146 RMS(Int)=  0.67883524
 Iteration 56 RMS(Cart)=  0.00002137 RMS(Int)=  0.67882424
 Iteration 57 RMS(Cart)=  0.00002127 RMS(Int)=  0.67881330
 Iteration 58 RMS(Cart)=  0.00002117 RMS(Int)=  0.67880240
 Iteration 59 RMS(Cart)=  0.00002107 RMS(Int)=  0.67879155
 Iteration 60 RMS(Cart)=  0.00002098 RMS(Int)=  0.67878074
 Iteration 61 RMS(Cart)=  0.00002088 RMS(Int)=  0.67876998
 Iteration 62 RMS(Cart)=  0.00002079 RMS(Int)=  0.67875927
 Iteration 63 RMS(Cart)=  0.00002069 RMS(Int)=  0.67874861
 Iteration 64 RMS(Cart)=  0.00002060 RMS(Int)=  0.67873799
 Iteration 65 RMS(Cart)=  0.00002051 RMS(Int)=  0.67872742
 Iteration 66 RMS(Cart)=  0.00002041 RMS(Int)=  0.67871690
 Iteration 67 RMS(Cart)=  0.00002032 RMS(Int)=  0.67870642
 Iteration 68 RMS(Cart)=  0.00002023 RMS(Int)=  0.67869598
 Iteration 69 RMS(Cart)=  0.00002014 RMS(Int)=  0.67868559
 Iteration 70 RMS(Cart)=  0.00002005 RMS(Int)=  0.67867525
 Iteration 71 RMS(Cart)=  0.00001996 RMS(Int)=  0.67866495
 Iteration 72 RMS(Cart)=  0.00001987 RMS(Int)=  0.67865470
 Iteration 73 RMS(Cart)=  0.00001978 RMS(Int)=  0.67864449
 Iteration 74 RMS(Cart)=  0.00001969 RMS(Int)=  0.67863432
 Iteration 75 RMS(Cart)=  0.00001960 RMS(Int)=  0.67862420
 Iteration 76 RMS(Cart)=  0.00001952 RMS(Int)=  0.67861412
 Iteration 77 RMS(Cart)=  0.00001943 RMS(Int)=  0.67860408
 Iteration 78 RMS(Cart)=  0.00001934 RMS(Int)=  0.67859409
 Iteration 79 RMS(Cart)=  0.00001926 RMS(Int)=  0.67858414
 Iteration 80 RMS(Cart)=  0.00001917 RMS(Int)=  0.67857423
 Iteration 81 RMS(Cart)=  0.00001908 RMS(Int)=  0.67856437
 Iteration 82 RMS(Cart)=  0.00001900 RMS(Int)=  0.67855454
 Iteration 83 RMS(Cart)=  0.00001892 RMS(Int)=  0.67854476
 Iteration 84 RMS(Cart)=  0.00001883 RMS(Int)=  0.67853502
 Iteration 85 RMS(Cart)=  0.00001875 RMS(Int)=  0.67852533
 Iteration 86 RMS(Cart)=  0.00001867 RMS(Int)=  0.67851567
 Iteration 87 RMS(Cart)=  0.00001858 RMS(Int)=  0.67850605
 Iteration 88 RMS(Cart)=  0.00001850 RMS(Int)=  0.67849648
 Iteration 89 RMS(Cart)=  0.00001842 RMS(Int)=  0.67848695
 Iteration 90 RMS(Cart)=  0.00001834 RMS(Int)=  0.67847745
 Iteration 91 RMS(Cart)=  0.00001826 RMS(Int)=  0.67846800
 Iteration 92 RMS(Cart)=  0.00001818 RMS(Int)=  0.67845859
 Iteration 93 RMS(Cart)=  0.00001810 RMS(Int)=  0.67844922
 Iteration 94 RMS(Cart)=  0.00001802 RMS(Int)=  0.67843988
 Iteration 95 RMS(Cart)=  0.00001794 RMS(Int)=  0.67843059
 Iteration 96 RMS(Cart)=  0.00001786 RMS(Int)=  0.67842133
 Iteration 97 RMS(Cart)=  0.00001778 RMS(Int)=  0.67841212
 Iteration 98 RMS(Cart)=  0.00001771 RMS(Int)=  0.67840294
 Iteration 99 RMS(Cart)=  0.00001763 RMS(Int)=  0.67839380
 Iteration100 RMS(Cart)=  0.00001755 RMS(Int)=  0.67838470
 New curvilinear step not converged.
 ITry= 1 IFail=1 DXMaxC= 3.17D-01 DCOld= 1.00D+10 DXMaxT= 5.05D-01 DXLimC= 3.00D+00 Rises=F
 Iteration  1 RMS(Cart)=  0.01750014 RMS(Int)=  0.10229553
 Iteration  2 RMS(Cart)=  0.00737682 RMS(Int)=  0.09794341
 Iteration  3 RMS(Cart)=  0.00668881 RMS(Int)=  0.09400921
 Iteration  4 RMS(Cart)=  0.00609657 RMS(Int)=  0.09043405
 Iteration  5 RMS(Cart)=  0.00559534 RMS(Int)=  0.08716188
 Iteration  6 RMS(Cart)=  0.00515543 RMS(Int)=  0.08415764
 Iteration  7 RMS(Cart)=  0.00474264 RMS(Int)=  0.08140625
 Iteration  8 RMS(Cart)=  0.00434241 RMS(Int)=  0.07889085
 Iteration  9 RMS(Cart)=  0.00399596 RMS(Int)=  0.07657930
 Iteration 10 RMS(Cart)=  0.00369329 RMS(Int)=  0.07444547
 Iteration 11 RMS(Cart)=  0.00342669 RMS(Int)=  0.07246783
 Iteration 12 RMS(Cart)=  0.00319008 RMS(Int)=  0.07062846
 Iteration 13 RMS(Cart)=  0.00297859 RMS(Int)=  0.06891230
 Iteration 14 RMS(Cart)=  0.00278824 RMS(Int)=  0.06730658
 Iteration 15 RMS(Cart)=  0.00261565 RMS(Int)=  0.06580039
 Iteration 16 RMS(Cart)=  0.00245785 RMS(Int)=  0.06438426
 Iteration 17 RMS(Cart)=  0.00231194 RMS(Int)=  0.06304966
 Iteration 18 RMS(Cart)=  0.00217446 RMS(Int)=  0.06178760
 Iteration 19 RMS(Cart)=  0.00203925 RMS(Int)=  0.06057667
 Iteration 20 RMS(Cart)=  0.00187976 RMS(Int)=  0.68008837
 Iteration 21 RMS(Cart)=  0.00007210 RMS(Int)=  0.68005131
 Iteration 22 RMS(Cart)=  0.00007165 RMS(Int)=  0.68001441
 Iteration 23 RMS(Cart)=  0.00007114 RMS(Int)=  0.67997769
 Iteration 24 RMS(Cart)=  0.00007076 RMS(Int)=  0.67994109
 Iteration 25 RMS(Cart)=  0.00007033 RMS(Int)=  0.67990464
 Iteration 26 RMS(Cart)=  0.00006990 RMS(Int)=  0.67986831
 Iteration 27 RMS(Cart)=  0.00006948 RMS(Int)=  0.67983212
 Iteration 28 RMS(Cart)=  0.00006906 RMS(Int)=  0.67979604
 Iteration 29 RMS(Cart)=  0.00006865 RMS(Int)=  0.67976006
 Iteration 30 RMS(Cart)=  0.00006824 RMS(Int)=  0.67972419
 Iteration 31 RMS(Cart)=  0.00006783 RMS(Int)=  0.67968839
 Iteration 32 RMS(Cart)=  0.00006742 RMS(Int)=  0.67965267
 Iteration 33 RMS(Cart)=  0.00006702 RMS(Int)=  0.67961699
 Iteration 34 RMS(Cart)=  0.00006663 RMS(Int)=  0.67958134
 Iteration 35 RMS(Cart)=  0.00006623 RMS(Int)=  0.67954569
 Iteration 36 RMS(Cart)=  0.00006584 RMS(Int)=  0.67951000
 Iteration 37 RMS(Cart)=  0.00006546 RMS(Int)=  0.67947423
 Iteration 38 RMS(Cart)=  0.00006508 RMS(Int)=  0.67943831
 Iteration 39 RMS(Cart)=  0.00006470 RMS(Int)=  0.67940217
 Iteration 40 RMS(Cart)=  0.00006432 RMS(Int)=  0.67936568
 Iteration 41 RMS(Cart)=  0.00006395 RMS(Int)=  0.67932864
 Iteration 42 RMS(Cart)=  0.00006357 RMS(Int)=  0.67929077
 Iteration 43 RMS(Cart)=  0.00006321 RMS(Int)=  0.67925150
 Iteration 44 RMS(Cart)=  0.00006284 RMS(Int)=  0.67920965
 Iteration 45 RMS(Cart)=  0.00006228 RMS(Int)=  0.67916213
 Iteration 46 RMS(Cart)=  0.00006208 RMS(Int)=  0.67909042
 Iteration 47 RMS(Cart)=  0.00005925 RMS(Int)=  0.05875702
 Iteration 48 RMS(Cart)=  0.00203174 RMS(Int)=  0.67891358
 Iteration 49 RMS(Cart)=  0.00002206 RMS(Int)=  0.67890224
 Iteration 50 RMS(Cart)=  0.00002196 RMS(Int)=  0.67889095
 Iteration 51 RMS(Cart)=  0.00002186 RMS(Int)=  0.67887971
 Iteration 52 RMS(Cart)=  0.00002176 RMS(Int)=  0.67886852
 Iteration 53 RMS(Cart)=  0.00002166 RMS(Int)=  0.67885738
 Iteration 54 RMS(Cart)=  0.00002156 RMS(Int)=  0.67884628
 Iteration 55 RMS(Cart)=  0.00002146 RMS(Int)=  0.67883524
 Iteration 56 RMS(Cart)=  0.00002137 RMS(Int)=  0.67882424
 Iteration 57 RMS(Cart)=  0.00002127 RMS(Int)=  0.67881330
 Iteration 58 RMS(Cart)=  0.00002117 RMS(Int)=  0.67880240
 Iteration 59 RMS(Cart)=  0.00002107 RMS(Int)=  0.67879155
 Iteration 60 RMS(Cart)=  0.00002098 RMS(Int)=  0.67878074
 Iteration 61 RMS(Cart)=  0.00002088 RMS(Int)=  0.67876998
 Iteration 62 RMS(Cart)=  0.00002079 RMS(Int)=  0.67875927
 Iteration 63 RMS(Cart)=  0.00002069 RMS(Int)=  0.67874861
 Iteration 64 RMS(Cart)=  0.00002060 RMS(Int)=  0.67873799
 Iteration 65 RMS(Cart)=  0.00002051 RMS(Int)=  0.67872742
 Iteration 66 RMS(Cart)=  0.00002041 RMS(Int)=  0.67871690
 Iteration 67 RMS(Cart)=  0.00002032 RMS(Int)=  0.67870642
 Iteration 68 RMS(Cart)=  0.00002023 RMS(Int)=  0.67869598
 Iteration 69 RMS(Cart)=  0.00002014 RMS(Int)=  0.67868559
 Iteration 70 RMS(Cart)=  0.00002005 RMS(Int)=  0.67867525
 Iteration 71 RMS(Cart)=  0.00001996 RMS(Int)=  0.67866495
 Iteration 72 RMS(Cart)=  0.00001987 RMS(Int)=  0.67865470
 Iteration 73 RMS(Cart)=  0.00001978 RMS(Int)=  0.67864449
 Iteration 74 RMS(Cart)=  0.00001969 RMS(Int)=  0.67863432
 Iteration 75 RMS(Cart)=  0.00001960 RMS(Int)=  0.67862420
 Iteration 76 RMS(Cart)=  0.00001952 RMS(Int)=  0.67861412
 Iteration 77 RMS(Cart)=  0.00001943 RMS(Int)=  0.67860408
 Iteration 78 RMS(Cart)=  0.00001934 RMS(Int)=  0.67859409
 Iteration 79 RMS(Cart)=  0.00001926 RMS(Int)=  0.67858414
 Iteration 80 RMS(Cart)=  0.00001917 RMS(Int)=  0.67857423
 Iteration 81 RMS(Cart)=  0.00001908 RMS(Int)=  0.67856437
 Iteration 82 RMS(Cart)=  0.00001900 RMS(Int)=  0.67855454
 Iteration 83 RMS(Cart)=  0.00001892 RMS(Int)=  0.67854476
 Iteration 84 RMS(Cart)=  0.00001883 RMS(Int)=  0.67853502
 Iteration 85 RMS(Cart)=  0.00001875 RMS(Int)=  0.67852533
 Iteration 86 RMS(Cart)=  0.00001867 RMS(Int)=  0.67851567
 Iteration 87 RMS(Cart)=  0.00001858 RMS(Int)=  0.67850605
 Iteration 88 RMS(Cart)=  0.00001850 RMS(Int)=  0.67849648
 Iteration 89 RMS(Cart)=  0.00001842 RMS(Int)=  0.67848695
 Iteration 90 RMS(Cart)=  0.00001834 RMS(Int)=  0.67847745
 Iteration 91 RMS(Cart)=  0.00001826 RMS(Int)=  0.67846800
 Iteration 92 RMS(Cart)=  0.00001818 RMS(Int)=  0.67845859
 Iteration 93 RMS(Cart)=  0.00001810 RMS(Int)=  0.67844922
 Iteration 94 RMS(Cart)=  0.00001802 RMS(Int)=  0.67843988
 Iteration 95 RMS(Cart)=  0.00001794 RMS(Int)=  0.67843059
 Iteration 96 RMS(Cart)=  0.00001786 RMS(Int)=  0.67842133
 Iteration 97 RMS(Cart)=  0.00001778 RMS(Int)=  0.67841212
 Iteration 98 RMS(Cart)=  0.00001771 RMS(Int)=  0.67840294
 Iteration 99 RMS(Cart)=  0.00001763 RMS(Int)=  0.67839380
 Iteration100 RMS(Cart)=  0.00001755 RMS(Int)=  0.67838470
 New curvilinear step not converged.
 ITry= 2 IFail=1 DXMaxC= 3.17D-01 DCOld= 1.00D+10 DXMaxT= 5.05D-01 DXLimC= 3.00D+00 Rises=F
 Iteration  1 RMS(Cart)=  0.01750014 RMS(Int)=  0.10229553
 Iteration  2 RMS(Cart)=  0.00737682 RMS(Int)=  0.09794341
 Iteration  3 RMS(Cart)=  0.00668881 RMS(Int)=  0.09400921
 Iteration  4 RMS(Cart)=  0.00609657 RMS(Int)=  0.09043405
 Iteration  5 RMS(Cart)=  0.00559534 RMS(Int)=  0.08716188
 Iteration  6 RMS(Cart)=  0.00515543 RMS(Int)=  0.08415764
 Iteration  7 RMS(Cart)=  0.00474264 RMS(Int)=  0.08140625
 Iteration  8 RMS(Cart)=  0.00434241 RMS(Int)=  0.07889085
 Iteration  9 RMS(Cart)=  0.00399596 RMS(Int)=  0.07657930
 Iteration 10 RMS(Cart)=  0.00369329 RMS(Int)=  0.07444547
 Iteration 11 RMS(Cart)=  0.00342669 RMS(Int)=  0.07246783
 Iteration 12 RMS(Cart)=  0.00319008 RMS(Int)=  0.07062846
 Iteration 13 RMS(Cart)=  0.00297859 RMS(Int)=  0.06891230
 Iteration 14 RMS(Cart)=  0.00278824 RMS(Int)=  0.06730658
 Iteration 15 RMS(Cart)=  0.00261565 RMS(Int)=  0.06580039
 Iteration 16 RMS(Cart)=  0.00245785 RMS(Int)=  0.06438426
 Iteration 17 RMS(Cart)=  0.00231194 RMS(Int)=  0.06304966
 Iteration 18 RMS(Cart)=  0.00217446 RMS(Int)=  0.06178760
 Iteration 19 RMS(Cart)=  0.00203925 RMS(Int)=  0.06057667
 Iteration 20 RMS(Cart)=  0.00187976 RMS(Int)=  0.68008837
 Iteration 21 RMS(Cart)=  0.00007210 RMS(Int)=  0.68005131
 Iteration 22 RMS(Cart)=  0.00007165 RMS(Int)=  0.68001441
 Iteration 23 RMS(Cart)=  0.00007114 RMS(Int)=  0.67997769
 Iteration 24 RMS(Cart)=  0.00007076 RMS(Int)=  0.67994109
 Iteration 25 RMS(Cart)=  0.00007033 RMS(Int)=  0.67990464
 Iteration 26 RMS(Cart)=  0.00006990 RMS(Int)=  0.67986831
 Iteration 27 RMS(Cart)=  0.00006948 RMS(Int)=  0.67983212
 Iteration 28 RMS(Cart)=  0.00006906 RMS(Int)=  0.67979604
 Iteration 29 RMS(Cart)=  0.00006865 RMS(Int)=  0.67976006
 Iteration 30 RMS(Cart)=  0.00006824 RMS(Int)=  0.67972419
 Iteration 31 RMS(Cart)=  0.00006783 RMS(Int)=  0.67968839
 Iteration 32 RMS(Cart)=  0.00006742 RMS(Int)=  0.67965267
 Iteration 33 RMS(Cart)=  0.00006702 RMS(Int)=  0.67961699
 Iteration 34 RMS(Cart)=  0.00006663 RMS(Int)=  0.67958134
 Iteration 35 RMS(Cart)=  0.00006623 RMS(Int)=  0.67954569
 Iteration 36 RMS(Cart)=  0.00006584 RMS(Int)=  0.67951000
 Iteration 37 RMS(Cart)=  0.00006546 RMS(Int)=  0.67947423
 Iteration 38 RMS(Cart)=  0.00006508 RMS(Int)=  0.67943831
 Iteration 39 RMS(Cart)=  0.00006470 RMS(Int)=  0.67940217
 Iteration 40 RMS(Cart)=  0.00006432 RMS(Int)=  0.67936568
 Iteration 41 RMS(Cart)=  0.00006395 RMS(Int)=  0.67932864
 Iteration 42 RMS(Cart)=  0.00006357 RMS(Int)=  0.67929077
 Iteration 43 RMS(Cart)=  0.00006321 RMS(Int)=  0.67925150
 Iteration 44 RMS(Cart)=  0.00006284 RMS(Int)=  0.67920965
 Iteration 45 RMS(Cart)=  0.00006228 RMS(Int)=  0.67916213
 Iteration 46 RMS(Cart)=  0.00006208 RMS(Int)=  0.67909042
 Iteration 47 RMS(Cart)=  0.00005925 RMS(Int)=  0.05875702
 Iteration 48 RMS(Cart)=  0.00203174 RMS(Int)=  0.67891358
 Iteration 49 RMS(Cart)=  0.00002206 RMS(Int)=  0.67890224
 Iteration 50 RMS(Cart)=  0.00002196 RMS(Int)=  0.67889095
 Iteration 51 RMS(Cart)=  0.00002186 RMS(Int)=  0.67887971
 Iteration 52 RMS(Cart)=  0.00002176 RMS(Int)=  0.67886852
 Iteration 53 RMS(Cart)=  0.00002166 RMS(Int)=  0.67885738
 Iteration 54 RMS(Cart)=  0.00002156 RMS(Int)=  0.67884628
 Iteration 55 RMS(Cart)=  0.00002146 RMS(Int)=  0.67883524
 Iteration 56 RMS(Cart)=  0.00002137 RMS(Int)=  0.67882424
 Iteration 57 RMS(Cart)=  0.00002127 RMS(Int)=  0.67881330
 Iteration 58 RMS(Cart)=  0.00002117 RMS(Int)=  0.67880240
 Iteration 59 RMS(Cart)=  0.00002107 RMS(Int)=  0.67879155
 Iteration 60 RMS(Cart)=  0.00002098 RMS(Int)=  0.67878074
 Iteration 61 RMS(Cart)=  0.00002088 RMS(Int)=  0.67876998
 Iteration 62 RMS(Cart)=  0.00002079 RMS(Int)=  0.67875927
 Iteration 63 RMS(Cart)=  0.00002069 RMS(Int)=  0.67874861
 Iteration 64 RMS(Cart)=  0.00002060 RMS(Int)=  0.67873799
 Iteration 65 RMS(Cart)=  0.00002051 RMS(Int)=  0.67872742
 Iteration 66 RMS(Cart)=  0.00002041 RMS(Int)=  0.67871690
 Iteration 67 RMS(Cart)=  0.00002032 RMS(Int)=  0.67870642
 Iteration 68 RMS(Cart)=  0.00002023 RMS(Int)=  0.67869598
 Iteration 69 RMS(Cart)=  0.00002014 RMS(Int)=  0.67868559
 Iteration 70 RMS(Cart)=  0.00002005 RMS(Int)=  0.67867525
 Iteration 71 RMS(Cart)=  0.00001996 RMS(Int)=  0.67866495
 Iteration 72 RMS(Cart)=  0.00001987 RMS(Int)=  0.67865470
 Iteration 73 RMS(Cart)=  0.00001978 RMS(Int)=  0.67864449
 Iteration 74 RMS(Cart)=  0.00001969 RMS(Int)=  0.67863432
 Iteration 75 RMS(Cart)=  0.00001960 RMS(Int)=  0.67862420
 Iteration 76 RMS(Cart)=  0.00001952 RMS(Int)=  0.67861412
 Iteration 77 RMS(Cart)=  0.00001943 RMS(Int)=  0.67860408
 Iteration 78 RMS(Cart)=  0.00001934 RMS(Int)=  0.67859409
 Iteration 79 RMS(Cart)=  0.00001926 RMS(Int)=  0.67858414
 Iteration 80 RMS(Cart)=  0.00001917 RMS(Int)=  0.67857423
 Iteration 81 RMS(Cart)=  0.00001908 RMS(Int)=  0.67856437
 Iteration 82 RMS(Cart)=  0.00001900 RMS(Int)=  0.67855454
 Iteration 83 RMS(Cart)=  0.00001892 RMS(Int)=  0.67854476
 Iteration 84 RMS(Cart)=  0.00001883 RMS(Int)=  0.67853502
 Iteration 85 RMS(Cart)=  0.00001875 RMS(Int)=  0.67852533
 Iteration 86 RMS(Cart)=  0.00001867 RMS(Int)=  0.67851567
 Iteration 87 RMS(Cart)=  0.00001858 RMS(Int)=  0.67850605
 Iteration 88 RMS(Cart)=  0.00001850 RMS(Int)=  0.67849648
 Iteration 89 RMS(Cart)=  0.00001842 RMS(Int)=  0.67848695
 Iteration 90 RMS(Cart)=  0.00001834 RMS(Int)=  0.67847745
 Iteration 91 RMS(Cart)=  0.00001826 RMS(Int)=  0.67846800
 Iteration 92 RMS(Cart)=  0.00001818 RMS(Int)=  0.67845859
 Iteration 93 RMS(Cart)=  0.00001810 RMS(Int)=  0.67844922
 Iteration 94 RMS(Cart)=  0.00001802 RMS(Int)=  0.67843988
 Iteration 95 RMS(Cart)=  0.00001794 RMS(Int)=  0.67843059
 Iteration 96 RMS(Cart)=  0.00001786 RMS(Int)=  0.67842133
 Iteration 97 RMS(Cart)=  0.00001778 RMS(Int)=  0.67841212
 Iteration 98 RMS(Cart)=  0.00001771 RMS(Int)=  0.67840294
 Iteration 99 RMS(Cart)=  0.00001763 RMS(Int)=  0.67839380
 Iteration100 RMS(Cart)=  0.00001755 RMS(Int)=  0.67838470
 New curvilinear step not converged.
 ITry= 3 IFail=1 DXMaxC= 3.17D-01 DCOld= 1.00D+10 DXMaxT= 5.05D-01 DXLimC= 3.00D+00 Rises=F
 Iteration  1 RMS(Cart)=  0.01750014 RMS(Int)=  0.10229553
 Iteration  2 RMS(Cart)=  0.00737682 RMS(Int)=  0.09794341
 Iteration  3 RMS(Cart)=  0.00668881 RMS(Int)=  0.09400921
 Iteration  4 RMS(Cart)=  0.00609657 RMS(Int)=  0.09043405
 Iteration  5 RMS(Cart)=  0.00559534 RMS(Int)=  0.08716188
 Iteration  6 RMS(Cart)=  0.00515543 RMS(Int)=  0.08415764
 Iteration  7 RMS(Cart)=  0.00474264 RMS(Int)=  0.08140625
 Iteration  8 RMS(Cart)=  0.00434241 RMS(Int)=  0.07889085
 Iteration  9 RMS(Cart)=  0.00399596 RMS(Int)=  0.07657930
 Iteration 10 RMS(Cart)=  0.00369329 RMS(Int)=  0.07444547
 Iteration 11 RMS(Cart)=  0.00342669 RMS(Int)=  0.07246783
 Iteration 12 RMS(Cart)=  0.00319008 RMS(Int)=  0.07062846
 Iteration 13 RMS(Cart)=  0.00297859 RMS(Int)=  0.06891230
 Iteration 14 RMS(Cart)=  0.00278824 RMS(Int)=  0.06730658
 Iteration 15 RMS(Cart)=  0.00261565 RMS(Int)=  0.06580039
 Iteration 16 RMS(Cart)=  0.00245785 RMS(Int)=  0.06438426
 Iteration 17 RMS(Cart)=  0.00231194 RMS(Int)=  0.06304966
 Iteration 18 RMS(Cart)=  0.00217446 RMS(Int)=  0.06178760
 Iteration 19 RMS(Cart)=  0.00203925 RMS(Int)=  0.06057667
 Iteration 20 RMS(Cart)=  0.00187976 RMS(Int)=  0.68008837
 Iteration 21 RMS(Cart)=  0.00007210 RMS(Int)=  0.68005131
 Iteration 22 RMS(Cart)=  0.00007165 RMS(Int)=  0.68001441
 Iteration 23 RMS(Cart)=  0.00007114 RMS(Int)=  0.67997769
 Iteration 24 RMS(Cart)=  0.00007076 RMS(Int)=  0.67994109
 Iteration 25 RMS(Cart)=  0.00007033 RMS(Int)=  0.67990464
 Iteration 26 RMS(Cart)=  0.00006990 RMS(Int)=  0.67986831
 Iteration 27 RMS(Cart)=  0.00006948 RMS(Int)=  0.67983212
 Iteration 28 RMS(Cart)=  0.00006906 RMS(Int)=  0.67979604
 Iteration 29 RMS(Cart)=  0.00006865 RMS(Int)=  0.67976006
 Iteration 30 RMS(Cart)=  0.00006824 RMS(Int)=  0.67972419
 Iteration 31 RMS(Cart)=  0.00006783 RMS(Int)=  0.67968839
 Iteration 32 RMS(Cart)=  0.00006742 RMS(Int)=  0.67965267
 Iteration 33 RMS(Cart)=  0.00006702 RMS(Int)=  0.67961699
 Iteration 34 RMS(Cart)=  0.00006663 RMS(Int)=  0.67958134
 Iteration 35 RMS(Cart)=  0.00006623 RMS(Int)=  0.67954569
 Iteration 36 RMS(Cart)=  0.00006584 RMS(Int)=  0.67951000
 Iteration 37 RMS(Cart)=  0.00006546 RMS(Int)=  0.67947423
 Iteration 38 RMS(Cart)=  0.00006508 RMS(Int)=  0.67943831
 Iteration 39 RMS(Cart)=  0.00006470 RMS(Int)=  0.67940217
 Iteration 40 RMS(Cart)=  0.00006432 RMS(Int)=  0.67936568
 Iteration 41 RMS(Cart)=  0.00006395 RMS(Int)=  0.67932864
 Iteration 42 RMS(Cart)=  0.00006357 RMS(Int)=  0.67929077
 Iteration 43 RMS(Cart)=  0.00006321 RMS(Int)=  0.67925150
 Iteration 44 RMS(Cart)=  0.00006284 RMS(Int)=  0.67920965
 Iteration 45 RMS(Cart)=  0.00006228 RMS(Int)=  0.67916213
 Iteration 46 RMS(Cart)=  0.00006208 RMS(Int)=  0.67909042
 Iteration 47 RMS(Cart)=  0.00005925 RMS(Int)=  0.05875702
 Iteration 48 RMS(Cart)=  0.00203174 RMS(Int)=  0.67891358
 Iteration 49 RMS(Cart)=  0.00002206 RMS(Int)=  0.67890224
 Iteration 50 RMS(Cart)=  0.00002196 RMS(Int)=  0.67889095
 Iteration 51 RMS(Cart)=  0.00002186 RMS(Int)=  0.67887971
 Iteration 52 RMS(Cart)=  0.00002176 RMS(Int)=  0.67886852
 Iteration 53 RMS(Cart)=  0.00002166 RMS(Int)=  0.67885738
 Iteration 54 RMS(Cart)=  0.00002156 RMS(Int)=  0.67884628
 Iteration 55 RMS(Cart)=  0.00002146 RMS(Int)=  0.67883524
 Iteration 56 RMS(Cart)=  0.00002137 RMS(Int)=  0.67882424
 Iteration 57 RMS(Cart)=  0.00002127 RMS(Int)=  0.67881330
 Iteration 58 RMS(Cart)=  0.00002117 RMS(Int)=  0.67880240
 Iteration 59 RMS(Cart)=  0.00002107 RMS(Int)=  0.67879155
 Iteration 60 RMS(Cart)=  0.00002098 RMS(Int)=  0.67878074
 Iteration 61 RMS(Cart)=  0.00002088 RMS(Int)=  0.67876998
 Iteration 62 RMS(Cart)=  0.00002079 RMS(Int)=  0.67875927
 Iteration 63 RMS(Cart)=  0.00002069 RMS(Int)=  0.67874861
 Iteration 64 RMS(Cart)=  0.00002060 RMS(Int)=  0.67873799
 Iteration 65 RMS(Cart)=  0.00002051 RMS(Int)=  0.67872742
 Iteration 66 RMS(Cart)=  0.00002041 RMS(Int)=  0.67871690
 Iteration 67 RMS(Cart)=  0.00002032 RMS(Int)=  0.67870642
 Iteration 68 RMS(Cart)=  0.00002023 RMS(Int)=  0.67869598
 Iteration 69 RMS(Cart)=  0.00002014 RMS(Int)=  0.67868559
 Iteration 70 RMS(Cart)=  0.00002005 RMS(Int)=  0.67867525
 Iteration 71 RMS(Cart)=  0.00001996 RMS(Int)=  0.67866495
 Iteration 72 RMS(Cart)=  0.00001987 RMS(Int)=  0.67865470
 Iteration 73 RMS(Cart)=  0.00001978 RMS(Int)=  0.67864449
 Iteration 74 RMS(Cart)=  0.00001969 RMS(Int)=  0.67863432
 Iteration 75 RMS(Cart)=  0.00001960 RMS(Int)=  0.67862420
 Iteration 76 RMS(Cart)=  0.00001952 RMS(Int)=  0.67861412
 Iteration 77 RMS(Cart)=  0.00001943 RMS(Int)=  0.67860408
 Iteration 78 RMS(Cart)=  0.00001934 RMS(Int)=  0.67859409
 Iteration 79 RMS(Cart)=  0.00001926 RMS(Int)=  0.67858414
 Iteration 80 RMS(Cart)=  0.00001917 RMS(Int)=  0.67857423
 Iteration 81 RMS(Cart)=  0.00001908 RMS(Int)=  0.67856437
 Iteration 82 RMS(Cart)=  0.00001900 RMS(Int)=  0.67855454
 Iteration 83 RMS(Cart)=  0.00001892 RMS(Int)=  0.67854476
 Iteration 84 RMS(Cart)=  0.00001883 RMS(Int)=  0.67853502
 Iteration 85 RMS(Cart)=  0.00001875 RMS(Int)=  0.67852533
 Iteration 86 RMS(Cart)=  0.00001867 RMS(Int)=  0.67851567
 Iteration 87 RMS(Cart)=  0.00001858 RMS(Int)=  0.67850605
 Iteration 88 RMS(Cart)=  0.00001850 RMS(Int)=  0.67849648
 Iteration 89 RMS(Cart)=  0.00001842 RMS(Int)=  0.67848695
 Iteration 90 RMS(Cart)=  0.00001834 RMS(Int)=  0.67847745
 Iteration 91 RMS(Cart)=  0.00001826 RMS(Int)=  0.67846800
 Iteration 92 RMS(Cart)=  0.00001818 RMS(Int)=  0.67845859
 Iteration 93 RMS(Cart)=  0.00001810 RMS(Int)=  0.67844922
 Iteration 94 RMS(Cart)=  0.00001802 RMS(Int)=  0.67843988
 Iteration 95 RMS(Cart)=  0.00001794 RMS(Int)=  0.67843059
 Iteration 96 RMS(Cart)=  0.00001786 RMS(Int)=  0.67842133
 Iteration 97 RMS(Cart)=  0.00001778 RMS(Int)=  0.67841212
 Iteration 98 RMS(Cart)=  0.00001771 RMS(Int)=  0.67840294
 Iteration 99 RMS(Cart)=  0.00001763 RMS(Int)=  0.67839380
 Iteration100 RMS(Cart)=  0.00001755 RMS(Int)=  0.67838470
 New curvilinear step not converged.
 ITry= 4 IFail=1 DXMaxC= 3.17D-01 DCOld= 1.00D+10 DXMaxT= 5.05D-01 DXLimC= 3.00D+00 Rises=F
 Iteration  1 RMS(Cart)=  0.01750014 RMS(Int)=  0.10229553
 Iteration  2 RMS(Cart)=  0.00737682 RMS(Int)=  0.09794341
 Iteration  3 RMS(Cart)=  0.00668881 RMS(Int)=  0.09400921
 Iteration  4 RMS(Cart)=  0.00609657 RMS(Int)=  0.09043405
 Iteration  5 RMS(Cart)=  0.00559534 RMS(Int)=  0.08716188
 Iteration  6 RMS(Cart)=  0.00515543 RMS(Int)=  0.08415764
 Iteration  7 RMS(Cart)=  0.00474264 RMS(Int)=  0.08140625
 Iteration  8 RMS(Cart)=  0.00434241 RMS(Int)=  0.07889085
 Iteration  9 RMS(Cart)=  0.00399596 RMS(Int)=  0.07657930
 Iteration 10 RMS(Cart)=  0.00369329 RMS(Int)=  0.07444547
 Iteration 11 RMS(Cart)=  0.00342669 RMS(Int)=  0.07246783
 Iteration 12 RMS(Cart)=  0.00319008 RMS(Int)=  0.07062846
 Iteration 13 RMS(Cart)=  0.00297859 RMS(Int)=  0.06891230
 Iteration 14 RMS(Cart)=  0.00278824 RMS(Int)=  0.06730658
 Iteration 15 RMS(Cart)=  0.00261565 RMS(Int)=  0.06580039
 Iteration 16 RMS(Cart)=  0.00245785 RMS(Int)=  0.06438426
 Iteration 17 RMS(Cart)=  0.00231194 RMS(Int)=  0.06304966
 Iteration 18 RMS(Cart)=  0.00217446 RMS(Int)=  0.06178760
 Iteration 19 RMS(Cart)=  0.00203925 RMS(Int)=  0.06057667
 Iteration 20 RMS(Cart)=  0.00187976 RMS(Int)=  0.68008837
 Iteration 21 RMS(Cart)=  0.00007210 RMS(Int)=  0.68005131
 Iteration 22 RMS(Cart)=  0.00007165 RMS(Int)=  0.68001441
 Iteration 23 RMS(Cart)=  0.00007114 RMS(Int)=  0.67997769
 Iteration 24 RMS(Cart)=  0.00007076 RMS(Int)=  0.67994109
 Iteration 25 RMS(Cart)=  0.00007033 RMS(Int)=  0.67990464
 Iteration 26 RMS(Cart)=  0.00006990 RMS(Int)=  0.67986831
 Iteration 27 RMS(Cart)=  0.00006948 RMS(Int)=  0.67983212
 Iteration 28 RMS(Cart)=  0.00006906 RMS(Int)=  0.67979604
 Iteration 29 RMS(Cart)=  0.00006865 RMS(Int)=  0.67976006
 Iteration 30 RMS(Cart)=  0.00006824 RMS(Int)=  0.67972419
 Iteration 31 RMS(Cart)=  0.00006783 RMS(Int)=  0.67968839
 Iteration 32 RMS(Cart)=  0.00006742 RMS(Int)=  0.67965267
 Iteration 33 RMS(Cart)=  0.00006702 RMS(Int)=  0.67961699
 Iteration 34 RMS(Cart)=  0.00006663 RMS(Int)=  0.67958134
 Iteration 35 RMS(Cart)=  0.00006623 RMS(Int)=  0.67954569
 Iteration 36 RMS(Cart)=  0.00006584 RMS(Int)=  0.67951000
 Iteration 37 RMS(Cart)=  0.00006546 RMS(Int)=  0.67947423
 Iteration 38 RMS(Cart)=  0.00006508 RMS(Int)=  0.67943831
 Iteration 39 RMS(Cart)=  0.00006470 RMS(Int)=  0.67940217
 Iteration 40 RMS(Cart)=  0.00006432 RMS(Int)=  0.67936568
 Iteration 41 RMS(Cart)=  0.00006395 RMS(Int)=  0.67932864
 Iteration 42 RMS(Cart)=  0.00006357 RMS(Int)=  0.67929077
 Iteration 43 RMS(Cart)=  0.00006321 RMS(Int)=  0.67925150
 Iteration 44 RMS(Cart)=  0.00006284 RMS(Int)=  0.67920965
 Iteration 45 RMS(Cart)=  0.00006228 RMS(Int)=  0.67916213
 Iteration 46 RMS(Cart)=  0.00006208 RMS(Int)=  0.67909042
 Iteration 47 RMS(Cart)=  0.00005925 RMS(Int)=  0.05875702
 Iteration 48 RMS(Cart)=  0.00203174 RMS(Int)=  0.67891358
 Iteration 49 RMS(Cart)=  0.00002206 RMS(Int)=  0.67890224
 Iteration 50 RMS(Cart)=  0.00002196 RMS(Int)=  0.67889095
 Iteration 51 RMS(Cart)=  0.00002186 RMS(Int)=  0.67887971
 Iteration 52 RMS(Cart)=  0.00002176 RMS(Int)=  0.67886852
 Iteration 53 RMS(Cart)=  0.00002166 RMS(Int)=  0.67885738
 Iteration 54 RMS(Cart)=  0.00002156 RMS(Int)=  0.67884628
 Iteration 55 RMS(Cart)=  0.00002146 RMS(Int)=  0.67883524
 Iteration 56 RMS(Cart)=  0.00002137 RMS(Int)=  0.67882424
 Iteration 57 RMS(Cart)=  0.00002127 RMS(Int)=  0.67881330
 Iteration 58 RMS(Cart)=  0.00002117 RMS(Int)=  0.67880240
 Iteration 59 RMS(Cart)=  0.00002107 RMS(Int)=  0.67879155
 Iteration 60 RMS(Cart)=  0.00002098 RMS(Int)=  0.67878074
 Iteration 61 RMS(Cart)=  0.00002088 RMS(Int)=  0.67876998
 Iteration 62 RMS(Cart)=  0.00002079 RMS(Int)=  0.67875927
 Iteration 63 RMS(Cart)=  0.00002069 RMS(Int)=  0.67874861
 Iteration 64 RMS(Cart)=  0.00002060 RMS(Int)=  0.67873799
 Iteration 65 RMS(Cart)=  0.00002051 RMS(Int)=  0.67872742
 Iteration 66 RMS(Cart)=  0.00002041 RMS(Int)=  0.67871690
 Iteration 67 RMS(Cart)=  0.00002032 RMS(Int)=  0.67870642
 Iteration 68 RMS(Cart)=  0.00002023 RMS(Int)=  0.67869598
 Iteration 69 RMS(Cart)=  0.00002014 RMS(Int)=  0.67868559
 Iteration 70 RMS(Cart)=  0.00002005 RMS(Int)=  0.67867525
 Iteration 71 RMS(Cart)=  0.00001996 RMS(Int)=  0.67866495
 Iteration 72 RMS(Cart)=  0.00001987 RMS(Int)=  0.67865470
 Iteration 73 RMS(Cart)=  0.00001978 RMS(Int)=  0.67864449
 Iteration 74 RMS(Cart)=  0.00001969 RMS(Int)=  0.67863432
 Iteration 75 RMS(Cart)=  0.00001960 RMS(Int)=  0.67862420
 Iteration 76 RMS(Cart)=  0.00001952 RMS(Int)=  0.67861412
 Iteration 77 RMS(Cart)=  0.00001943 RMS(Int)=  0.67860408
 Iteration 78 RMS(Cart)=  0.00001934 RMS(Int)=  0.67859409
 Iteration 79 RMS(Cart)=  0.00001926 RMS(Int)=  0.67858414
 Iteration 80 RMS(Cart)=  0.00001917 RMS(Int)=  0.67857423
 Iteration 81 RMS(Cart)=  0.00001908 RMS(Int)=  0.67856437
 Iteration 82 RMS(Cart)=  0.00001900 RMS(Int)=  0.67855454
 Iteration 83 RMS(Cart)=  0.00001892 RMS(Int)=  0.67854476
 Iteration 84 RMS(Cart)=  0.00001883 RMS(Int)=  0.67853502
 Iteration 85 RMS(Cart)=  0.00001875 RMS(Int)=  0.67852533
 Iteration 86 RMS(Cart)=  0.00001867 RMS(Int)=  0.67851567
 Iteration 87 RMS(Cart)=  0.00001858 RMS(Int)=  0.67850605
 Iteration 88 RMS(Cart)=  0.00001850 RMS(Int)=  0.67849648
 Iteration 89 RMS(Cart)=  0.00001842 RMS(Int)=  0.67848695
 Iteration 90 RMS(Cart)=  0.00001834 RMS(Int)=  0.67847745
 Iteration 91 RMS(Cart)=  0.00001826 RMS(Int)=  0.67846800
 Iteration 92 RMS(Cart)=  0.00001818 RMS(Int)=  0.67845859
 Iteration 93 RMS(Cart)=  0.00001810 RMS(Int)=  0.67844922
 Iteration 94 RMS(Cart)=  0.00001802 RMS(Int)=  0.67843988
 Iteration 95 RMS(Cart)=  0.00001794 RMS(Int)=  0.67843059
 Iteration 96 RMS(Cart)=  0.00001786 RMS(Int)=  0.67842133
 Iteration 97 RMS(Cart)=  0.00001778 RMS(Int)=  0.67841212
 Iteration 98 RMS(Cart)=  0.00001771 RMS(Int)=  0.67840294
 Iteration 99 RMS(Cart)=  0.00001763 RMS(Int)=  0.67839380
 Iteration100 RMS(Cart)=  0.00001755 RMS(Int)=  0.67838470
 New curvilinear step not converged.
 ITry= 5 IFail=1 DXMaxC= 3.17D-01 DCOld= 1.00D+10 DXMaxT= 5.05D-01 DXLimC= 3.00D+00 Rises=F
 Iteration  1 RMS(Cart)=  0.01750014 RMS(Int)=  0.10229553
 Iteration  2 RMS(Cart)=  0.00737682 RMS(Int)=  0.09794341
 Iteration  3 RMS(Cart)=  0.00668881 RMS(Int)=  0.09400921
 Iteration  4 RMS(Cart)=  0.00609657 RMS(Int)=  0.09043405
 Iteration  5 RMS(Cart)=  0.00559534 RMS(Int)=  0.08716188
 Iteration  6 RMS(Cart)=  0.00515543 RMS(Int)=  0.08415764
 Iteration  7 RMS(Cart)=  0.00474264 RMS(Int)=  0.08140625
 Iteration  8 RMS(Cart)=  0.00434241 RMS(Int)=  0.07889085
 Iteration  9 RMS(Cart)=  0.00399596 RMS(Int)=  0.07657930
 Iteration 10 RMS(Cart)=  0.00369329 RMS(Int)=  0.07444547
 Iteration 11 RMS(Cart)=  0.00342669 RMS(Int)=  0.07246783
 Iteration 12 RMS(Cart)=  0.00319008 RMS(Int)=  0.07062846
 Iteration 13 RMS(Cart)=  0.00297859 RMS(Int)=  0.06891230
 Iteration 14 RMS(Cart)=  0.00278824 RMS(Int)=  0.06730658
[...]
   A14        1.75220  -0.00000   0.00000   0.00007   0.00007   1.75228
   A15        2.48409  -0.00001   0.00000  -0.00018  -0.00018   2.48391
   A16        2.04689   0.00002   0.00000   0.00011   0.00011   2.04699
    D1       -2.01287   0.00000   0.00000   0.00001   0.00001  -2.01286
    D2       -2.14223  -0.00001   0.00000  -0.00020  -0.00020  -2.14243
    D3        2.14254  -0.00000   0.00000  -0.00011  -0.00011   2.14243
    D4       -3.14133   0.00000   0.00000  -0.00026  -0.00026   3.14159
    D5        0.00055  -0.00000   0.00000  -0.00055  -0.00055  -0.00000
    D6        2.11256   0.00000   0.00000  -0.00073  -0.00073   2.11183
    D7       -1.02913   0.00001   0.00000  -0.00063  -0.00063  -1.02977
    D8        0.00095  -0.00001   0.00000  -0.00095  -0.00095  -0.00000
    D9       -3.14074  -0.00001   0.00000  -0.00085  -0.00085   3.14159
   D10       -2.11100  -0.00000   0.00000  -0.00083  -0.00083  -2.11183
   D11        1.03049  -0.00000   0.00000  -0.00073  -0.00073   1.02977
   D12        0.00021  -0.00000   0.00000  -0.00021  -0.00021  -0.00000
   D13       -3.14158  -0.00000   0.00000  -0.00001  -0.00001  -3.14159
   D14       -3.14128  -0.00000   0.00000  -0.00031  -0.00031   3.14159
   D15        0.00011  -0.00000   0.00000  -0.00011  -0.00011  -0.00000
         Item               Value     Threshold  Converged?
 Maximum Force            0.000056     0.000450     YES
 RMS     Force            0.000013     0.000300     YES
 Maximum Displacement     0.001652     0.001800     YES
 RMS     Displacement     0.000462     0.001200     YES
 Predicted change in Energy=-1.830222D-08
 Optimization completed.
    -- Stationary point found.
                           ----------------------------
                           !   Optimized Parameters   !
                           ! (Angstroms and Degrees)  !
 --------------------------                            --------------------------
 ! Name  Definition              Value          Derivative Info.                !
 --------------------------------------------------------------------------------
 ! R1    R(1,2)                  1.0986         -DE/DX =    0.0                 !
 ! R2    R(1,3)                  1.0986         -DE/DX =    0.0                 !
 ! R3    R(1,4)                  1.0935         -DE/DX =    0.0                 !
 ! R4    R(4,10)                 2.1767         -DE/DX =    0.0                 !
 ! R5    R(5,6)                  1.0986         -DE/DX =    0.0                 !
 ! R6    R(5,7)                  1.0935         -DE/DX =    0.0                 !
 ! R7    R(5,8)                  1.0986         -DE/DX =    0.0                 !
 ! R8    R(5,9)                  1.5033         -DE/DX =    0.0                 !
 ! R9    R(9,10)                 1.3384         -DE/DX =    0.0                 !
 ! R10   R(9,11)                 1.0908         -DE/DX =    0.0                 !
 ! R11   R(10,12)                1.0908         -DE/DX =    0.0                 !
 ! A1    A(2,1,3)              106.4722         -DE/DX =    0.0                 !
 ! A2    A(2,1,4)              107.7226         -DE/DX =    0.0                 !
 ! A3    A(3,1,4)              107.7319         -DE/DX =    0.0                 !
 ! A4    A(1,4,10)              39.4961         -DE/DX =   -0.0001              !
 ! A5    A(6,5,7)              107.715          -DE/DX =    0.0                 !
 ! A6    A(6,5,8)              106.471          -DE/DX =    0.0                 !
 ! A7    A(6,5,9)              110.8393         -DE/DX =    0.0                 !
 ! A8    A(7,5,8)              107.7251         -DE/DX =    0.0                 !
 ! A9    A(7,5,9)              112.9576         -DE/DX =    0.0                 !
 ! A10   A(8,5,9)              110.8484         -DE/DX =    0.0                 !
 ! A11   A(5,9,10)             127.9601         -DE/DX =    0.0                 !
 ! A12   A(5,9,11)             114.7562         -DE/DX =    0.0                 !
 ! A13   A(10,9,11)            117.2837         -DE/DX =    0.0                 !
 ! A14   A(4,10,9)             100.394          -DE/DX =    0.0                 !
 ! A15   A(4,10,12)            142.328          -DE/DX =    0.0                 !
 ! A16   A(9,10,12)            117.278          -DE/DX =    0.0                 !
 ! D1    D(2,1,3,4)           -115.3291         -DE/DX =    0.0                 !
 ! D2    D(2,1,4,10)          -122.7405         -DE/DX =    0.0                 !
 ! D3    D(3,1,4,10)           122.7584         -DE/DX =    0.0                 !
 ! D4    D(1,4,10,9)           180.0151         -DE/DX =    0.0                 !
 ! D5    D(1,4,10,12)            0.0315         -DE/DX =    0.0                 !
 ! D6    D(6,5,9,10)           121.0406         -DE/DX =    0.0                 !
 ! D7    D(6,5,9,11)           -58.965          -DE/DX =    0.0                 !
 ! D8    D(7,5,9,10)             0.0544         -DE/DX =    0.0                 !
 ! D9    D(7,5,9,11)           180.0488         -DE/DX =    0.0                 !
 ! D10   D(8,5,9,10)          -120.9514         -DE/DX =    0.0                 !
 ! D11   D(8,5,9,11)            59.043          -DE/DX =    0.0                 !
 ! D12   D(5,9,10,4)             0.0121         -DE/DX =    0.0                 !
 ! D13   D(5,9,10,12)         -179.9992         -DE/DX =    0.0                 !
 ! D14   D(11,9,10,4)          180.0178         -DE/DX =    0.0                 !
 ! D15   D(11,9,10,12)           0.0065         -DE/DX =    0.0                 !
 --------------------------------------------------------------------------------
 GradGradGradGradGradGradGradGradGradGradGradGradGradGradGradGradGradGrad


 ----------------------------------------------------------------------

 Electric dipole moment (input orientation):
 (Debye = 10**-18 statcoulomb cm , SI units = C m)
                  (au)            (Debye)         (10**-30 SI)
   Tot        0.702582D-01      0.178579D+00      0.595674D+00
   x         -0.218322D-01     -0.554918D-01     -0.185101D+00
   y          0.606099D-01      0.154055D+00      0.513872D+00
   z         -0.280359D-01     -0.712602D-01     -0.237698D+00

 Dipole polarizability, Alpha (input orientation).
 (esu units = cm**3 , SI units = C**2 m**2 J**-1)
 Alpha(0;0):
               (au)            (10**-24 esu)      (10**-40 SI)
   iso        0.429231D+02      0.636054D+01      0.707706D+01
   aniso      0.268324D+02      0.397615D+01      0.442406D+01
   xx         0.574032D+02      0.850627D+01      0.946450D+01
   yx         0.647739D+01      0.959851D+00      0.106798D+01
   yy         0.405439D+02      0.600799D+01      0.668479D+01
   zx         0.565948D+00      0.838648D-01      0.933122D-01
   zy        -0.410282D+01     -0.607976D+00     -0.676464D+00
   zz         0.308222D+02      0.456738D+01      0.508189D+01

 ----------------------------------------------------------------------

 Dipole orientation:
     6          0.77662412         -1.50550409         -3.47298006
     1          1.44260433         -3.47162857         -3.50499284
     1          2.47272965         -0.30885558         -3.50653021
     1         -0.17778490         -1.19396670         -1.66680861
     6         -4.95072526          0.36071463         -3.46975188
     1         -5.61771615          2.32645598         -3.50327642
     1         -3.99377292          0.05215492         -1.66453743
     1         -6.64634138         -0.83678660         -3.49906433
     6         -3.29102041         -0.18170905         -5.71063862
     6         -0.88630914         -0.96521336         -5.71215935
     1         -4.19091117          0.10994544         -7.54199965
     1          0.01045472         -1.25872669         -7.54472955

 Electric dipole moment (dipole orientation):
 (Debye = 10**-18 statcoulomb cm , SI units = C m)
                  (au)            (Debye)         (10**-30 SI)
   Tot        0.702582D-01      0.178579D+00      0.595674D+00
   x          0.000000D+00      0.000000D+00      0.000000D+00
   y          0.000000D+00      0.000000D+00      0.000000D+00
   z          0.702582D-01      0.178579D+00      0.595674D+00

 Dipole polarizability, Alpha (dipole orientation).
 (esu units = cm**3 , SI units = C**2 m**2 J**-1)
 Alpha(0;0):
               (au)            (10**-24 esu)      (10**-40 SI)
   iso        0.429231D+02      0.636054D+01      0.707706D+01
   aniso      0.268324D+02      0.397615D+01      0.442406D+01
   xx         0.566896D+02      0.840053D+01      0.934685D+01
   yx        -0.901327D+01     -0.133563D+01     -0.148609D+01
   yy         0.319636D+02      0.473651D+01      0.527008D+01
   zx        -0.830207D-02     -0.123024D-02     -0.136883D-02
   zy         0.106473D-01      0.157776D-02      0.175549D-02
   zz         0.401161D+02      0.594460D+01      0.661426D+01

 ----------------------------------------------------------------------
 1\1\GINC-TITAN\Freq\RB3LYP\6-31G(d)\C4H8\SHARP\12-Mar-2024\0\\#N Geom=
 AllCheck Guess=TCheck SCRF=Check GenChk RB3LYP/6-31G(d) Freq\\cis-2-bu
 tene_JETWEI\\0,1\C,1.106346062,-1.133801041,1.2929336003\H,1.639063336
 9,-0.5939049532,2.0877313283\H,1.8261215837,-1.2735340821,0.4748360417
 \H,0.3075619473,-0.4832068948,0.9262579058\C,-1.9050110868,-2.17529035
 43,1.3821010789\H,-2.4274106325,-2.7451122816,0.6014835281\H,-1.699123
 4446,-1.1777405131,0.9844066321\H,-2.6141220694,-2.0639937149,2.213781
 7155\C,-0.6638659819,-2.8956341184,1.8299968592\C,0.6005179103,-2.4584
 386895,1.7925684557\H,-0.8356284341,-3.8951470962,2.2315467948\H,1.373
 4163091,-3.1313933107,2.1660695195\\Version=ES64L-G16RevA.03\State=1-A
 \HF=-157.2247742\RMSD=6.193e-10\RMSF=1.571e-05\ZeroPoint=0.108699\Ther
 mal=0.1141589\Dipole=-0.0218322,0.0606099,-0.0280359\DipoleDeriv=0.031
 0764,-0.0449196,0.0039834,-0.0132521,0.0255572,0.054947,-0.0093728,0.0
 512722,0.1368834,0.0021649,-0.0720667,-0.0687284,-0.1162737,-0.0360567
 ,-0.0454613,-0.0725595,-0.0738091,-0.0509777,-0.0439765,-0.0061659,0.1
 127997,-0.0279855,0.0133073,-0.0197045,0.1444789,0.0163109,-0.0541432,
 -0.0412089,0.1068638,-0.0569484,0.0611716,-0.0316649,0.0464491,-0.0376
 822,0.0517501,0.0355065,-0.0022188,0.0272049,-0.0302917,-0.0043938,0.0
 575522,0.0424991,-0.0167926,0.0462053,0.1381396,-0.0493581,-0.0402166,
 -0.0760263,-0.0198507,0.0049221,-0.0853526,-0.1235414,-0.0754623,-0.04
 04277,0.0447492,-0.0435014,0.0164533,0.0021536,-0.1142681,0.0745946,-0
 .0028491,0.0692919,0.0321112,-0.093993,0.019598,0.0840253,0.0652717,0.
 0698168,0.0008789,0.1036912,-0.0166605,-0.0606655,0.1877881,-0.0034001
 ,0.0461612,-0.1295608,0.0405466,-0.115332,0.099199,-0.1007528,-0.14327
 49,0.0672866,0.0171098,0.0235487,0.1431807,0.156388,-0.1324569,-0.0295
 937,-0.1470984,-0.13872,-0.0168889,-0.024946,-0.0046699,-0.0190323,-0.
 1260165,0.0988784,-0.0071361,0.0981899,0.0714549,-0.0854209,0.0644399,
 -0.0503067,0.0585713,-0.0600841,0.0800602,-0.0478417,0.0807627,0.07411
 35\Polar=57.4031598,6.4773927,40.5438949,0.565948,-4.1028243,30.822199
 1\Quadrupole=0.8270948,0.0892726,-0.9163674,0.2718465,0.1130135,-0.484
 1568\PG=C01 [X(C4H8)]\NImag=0\\0.56424425,-0.03578593,0.51468399,0.018
 39291,0.00439503,0.53529071,-0.10622560,-0.05650909,-0.09322505,0.1136
 1492,-0.05792329,-0.10752322,-0.09194036,0.06757818,0.11680290,-0.0918
 0473,-0.08928101,-0.18446988,0.09980439,0.09849318,0.20039815,-0.15653
 641,0.02770750,0.12447174,0.01134387,-0.00183540,-0.01248382,0.1689457
 8,0.02522060,-0.05188491,-0.02462375,0.01124261,-0.00269483,-0.0117689
 7,-0.02465648,0.05699224,0.12469567,-0.02683296,-0.18987150,0.01652780
 ,-0.00440824,-0.01954206,-0.13891072,0.02849008,0.20493860,-0.19594649
 ,0.11618318,-0.06587296,-0.01145667,0.00858580,-0.00356264,-0.01540043
 ,0.01108867,-0.00812163,0.21377048,0.11447887,-0.14149895,0.05186118,-
 0.01255389,0.01076919,-0.00435967,0.00308925,-0.00305112,0.00101773,-0
 .12594108,0.15248081,-0.06515374,0.05205672,-0.07938469,-0.01797797,0.
 01536450,-0.00766243,0.01857186,-0.01532772,0.01010806,0.07240881,-0.0
 5909657,0.08015929,0.00179928,0.00142466,0.00025313,-0.00003479,0.0002
 8454,-0.00009748,-0.00016623,0.00013302,-0.00009156,-0.00136666,-0.000
 24062,-0.00001006,0.50885522,-0.00055480,0.00045984,-0.00259626,-0.000
 22948,-0.00068685,0.00025958,0.00026743,-0.00020715,0.00008567,-0.0008
 3186,-0.00064978,0.00000308,0.03164257,0.56809600,0.00108705,-0.002367
 87,-0.00441957,-0.00059930,-0.00038705,0.00004666,0.00056808,0.0007786
 4,-0.00030233,0.00023895,0.00007600,-0.00041250,-0.01642053,-0.0103481
 8,0.53743529,-0.00003599,-0.00010401,-0.00094024,-0.00020209,-0.000126
 49,0.00004618,0.00001840,-0.00009829,0.00009652,0.00019201,-0.00002978
 ,-0.00008244,-0.09984664,-0.06512815,-0.08616656,0.11225449,0.00005310
 ,-0.00038053,0.00025855,-0.00022306,0.00027710,-0.00007031,-0.00002354
 ,0.00016577,-0.00005719,0.00001764,0.00047626,-0.00017842,-0.06252849,
 -0.12119780,-0.09429345,0.06772067,0.12777264,0.00000506,0.00013236,-0
 .00025901,0.00013398,-0.00018963,0.00004998,-0.00003790,-0.00010151,0.
 00006098,-0.00002008,-0.00021443,0.00008298,-0.08503013,-0.09602928,-0
 .17718571,0.09522752,0.10614784,0.19080582,-0.00162163,0.00007091,-0.0
 0017037,0.00033427,-0.00017228,0.00007373,0.00030983,-0.00016236,0.000
 13842,-0.00232455,-0.00143949,0.00027203,-0.06104964,-0.04974750,0.019
 72992,-0.00372234,-0.01278937,0.00674139,0.06582345,-0.00052034,-0.000
 40398,-0.00006293,-0.00017317,0.00030507,-0.00015073,-0.00011748,0.000
 36902,-0.00015501,-0.00120751,0.00100569,-0.00033842,-0.04804716,-0.27
 111233,0.08791977,-0.00344688,-0.01498268,0.00649090,0.05417260,0.2946
 2803,0.00007696,0.00000825,-0.00040345,0.00002938,-0.00022533,0.000111
 97,0.00016614,-0.00008661,0.00007124,0.00017559,-0.00036760,0.00071051
 ,0.01900986,0.08772705,-0.08475378,-0.00432575,-0.02239225,0.01035107,
 -0.02069284,-0.09841887,0.08604411,-0.00022368,0.00059277,0.00071449,0
 .00001990,-0.00014298,0.00000513,-0.00018692,-0.00014763,0.00002756,0.
 00016238,0.00004851,0.00011324,-0.14872303,0.01517681,0.12797020,0.010
 82974,-0.00113894,-0.01186935,-0.00436316,0.00026013,0.00445777,0.1657
 6522,0.00005742,-0.00045916,0.00006907,0.00001186,0.00018036,-0.000073
 97,-0.00025072,0.00025869,-0.00022225,0.00004396,0.00047686,-0.0002028
 1,0.01647686,-0.05204841,-0.01825759,0.01180025,-0.00221542,-0.0146538
 9,-0.01952993,0.00465004,0.02402326,-0.01929832,0.05061169,-0.00007045
 ,0.00024264,0.00000768,0.00004272,-0.00005637,0.00004461,0.00002450,-0
 .00008035,0.00005398,0.00003162,-0.00017385,0.00011072,0.12517838,-0.0
 1696581,-0.19748557,0.01524235,-0.00182965,-0.01950812,0.00569821,-0.0
 0148671,-0.00863586,-0.13717142,0.01983928,0.21447046,-0.00699820,-0.0
 1177312,0.00350736,0.00143605,0.00214986,0.00069588,0.00163641,0.00107
 912,-0.00168986,-0.00050594,0.00123688,-0.00055981,-0.17464158,0.05223
 354,-0.03389130,-0.01909740,0.00798249,-0.00544823,0.00999180,-0.00234
 010,0.00226870,-0.02356362,0.01061185,-0.00823850,0.79834971,-0.029798
 53,-0.00751509,0.00202835,-0.00124122,-0.00319121,0.00135698,-0.000918
 14,-0.00309542,0.00100444,0.00035927,0.00099513,-0.00045169,0.05234409
 ,-0.12494949,0.02819947,-0.01517210,0.01141243,-0.00375513,0.02757860,
 -0.01433347,0.00880888,0.00176938,-0.00054468,0.00086941,0.12099668,0.
 56457072,0.01111072,0.00411927,0.00505193,0.00028544,0.00126843,-0.000
 45183,0.00099190,0.00172013,-0.00074473,-0.00018954,-0.00034927,-0.000
 04922,-0.03393035,0.02817347,-0.08835194,-0.01982227,0.01341506,-0.004
 53850,-0.01037383,0.00534698,-0.00448233,0.01964104,-0.01258651,0.0118
 9416,0.02495799,-0.16314938,0.21602943,-0.10380823,-0.03386248,0.01064
 608,-0.00878808,-0.01809981,0.00737563,-0.01017097,-0.02415884,0.00733
 468,0.01278195,0.02418232,-0.00859025,-0.02810850,-0.00408796,-0.00217
 883,-0.00015707,0.00133362,0.00064895,0.00089887,-0.00135027,0.0006933
 2,-0.00001460,0.00045807,-0.00141792,-0.50131899,-0.14117875,0.0070332
 5,0.83345981,-0.03396239,-0.19300379,0.04683492,-0.00801536,-0.0156116
 8,0.00670270,-0.00224073,0.00369618,0.00038464,-0.00574625,-0.01703089
 ,0.00608167,0.01393782,0.01278894,-0.00146011,0.00333556,-0.00132310,0
 .00167121,-0.00047351,-0.00035521,0.00002210,0.00384541,-0.00183921,0.
 00046091,-0.13237545,-0.15088452,0.02738928,0.07811833,0.53075385,0.01
 068654,0.04685433,-0.09103549,-0.00641136,-0.02059859,0.01217915,0.007
 63577,0.02397077,-0.00573636,0.00402094,0.00955049,-0.00458371,-0.0097
 7791,-0.00354670,0.00586191,-0.00193698,0.00068179,-0.00072753,0.00032
 536,-0.00008260,-0.00010254,-0.00110275,0.00082219,-0.00034693,0.00331
 829,0.02636352,-0.06018834,0.04712122,-0.15383421,0.21465529,-0.003658
 38,0.00009043,-0.00197669,-0.00047554,-0.00097460,0.00033036,-0.000296
 00,-0.00043213,0.00023002,0.00019102,-0.00006163,0.00004869,0.00505920
 ,0.02532883,-0.01033281,0.00087318,-0.00084907,-0.00005675,-0.00463337
 ,0.00267761,-0.00186200,0.00093374,-0.00055482,0.00079188,-0.06215657,
 -0.03560930,0.01219649,-0.00543635,-0.03164232,0.01229529,0.06902998,-
 0.00177881,0.00363508,0.00375642,0.00005740,0.00056661,-0.00028130,-0.
 00062130,-0.00130228,0.00031817,0.00029443,0.00030567,-0.00009718,-0.0
 0322617,-0.01231965,0.00567142,0.00050074,0.00042311,0.00041354,0.0027
 5509,0.00008407,0.00099625,0.00000800,0.00030306,-0.00041395,-0.039704
 50,-0.28049360,0.09770545,-0.00067992,-0.00898571,0.00521535,0.0422075
 3,0.29755297,-0.00118930,0.00397092,0.01121949,0.00092286,0.00212924,-
 0.00106560,-0.00071787,-0.00219036,0.00062275,-0.00010080,-0.00013824,
 0.00004003,0.00170877,0.00898408,-0.00157926,0.00066641,-0.00039669,0.
 00030889,-0.00189673,0.00099113,0.00105459,-0.00073816,0.00017701,0.00
 036000,0.01392689,0.09818166,-0.07764400,-0.00076234,0.00161738,0.0027
 9961,-0.01274292,-0.10981065,0.07035180,0.00901109,-0.00803483,0.00419
 960,0.00043375,0.00067648,-0.00038263,0.00050267,0.00089172,-0.0002369
 2,-0.00009711,-0.00276935,0.00095965,-0.00177664,-0.00406944,-0.000004
 86,-0.00110629,0.00044495,-0.00029446,0.00035646,0.00009258,0.00000289
 ,-0.00063597,0.00017351,-0.00011137,-0.02313168,0.02087003,-0.01190084
 ,-0.18933782,0.11521888,-0.06617441,0.00056908,0.00018749,0.00092318,0
 .20521246,0.02051410,-0.01610928,0.01001979,0.00005523,0.00080655,-0.0
 0082650,-0.00040040,0.00075382,0.00037492,-0.00284624,-0.00427887,0.00
 218683,-0.00220111,0.00182668,0.00446896,0.00074848,-0.00042779,0.0000
 8801,-0.00026277,0.00014576,-0.00009512,-0.00097315,0.00062617,-0.0004
 0557,-0.01009726,0.00802921,-0.00305290,0.11932568,-0.15820485,0.06460
 367,-0.00018052,0.00023068,-0.00351547,-0.12368204,0.16660191,-0.00783
 668,0.00670229,-0.00172620,0.00046710,0.00055020,0.00036127,-0.0002796
 8,-0.00078035,0.00034136,0.00099173,0.00219423,0.00088097,-0.00079211,
 0.00425331,0.01114679,0.00199527,-0.00128526,0.00055916,0.00015471,-0.
 00005351,0.00003448,-0.00204774,0.00106622,-0.00096513,0.00115258,0.00
 054349,0.00347538,-0.06790379,0.06412952,-0.07277506,0.00107844,-0.003
 47352,-0.00646830,0.07302018,-0.07384661,0.06513529\\0.00004414,-0.000
 00719,-0.00002912,0.00000160,0.00000583,0.00001269,-0.00000539,0.00000
 055,0.00000926,-0.00003213,0.00002214,-0.00000368,0.00000899,-0.000019
 42,0.00004342,0.00000030,0.00000463,-0.00001284,-0.00000962,-0.0000064
 8,-0.00001048,0.00000078,0.00000610,-0.00000667,0.00000365,0.00001208,
 -0.00001732,0.00001015,-0.00001605,0.00001389,-0.00000797,0.00000359,0
 .00000023,-0.00001451,-0.00000578,0.00000063\\\@


 ALL MY ATTEMPTS TO ADAPT THE THEORETICAL FOUNDATIONS OF PHYSICS
 TO THESE NEW NOTIONS FAILED COMPLETELY. IT WAS AS IF THE GROUND HAD
 BEEN PULLED OUT FROM UNDER ONE WITH NO FIRM FOUNDATION TO BE SEEN ANYWHERE,
 UPON WHICH ONE COULD HAVE BUILT.  -- A.EINSTEIN
 Job cpu time:       0 days  0 hours  2 minutes 10.6 seconds.
 Elapsed time:       0 days  0 hours  0 minutes 33.0 seconds.
 File lengths (MBytes):  RWF=     12 Int=      0 D2E=      0 Chk=      2 Scr=      1
 Normal termination of Gaussian 16 at Tue Mar 12 13:42:00 2024.
