 Entering Gaussian System, Link 0=g16
 Input=trans-2-butene_JETWEI.com
 Output=trans-2-butene_JETWEI.log
 Initial command:
 /home/sharp/g16/l1.exe "/home/sharp/g16/scratch/Gau-33417.inp" -scrdir="/home/sharp/g16/scratch/"
 Entering Link 1 = /home/sharp/g16/l1.exe PID=     33418.
  
 Copyright (c) 1988,1990,1992,1993,1995,1998,2003,2009,2016,
            Gaussian, Inc.  All Rights Reserved.
  
 This is part of the Gaussian(R) 16 program.  It is based on
 the Gaussian(R) 09 system (copyright 2009, Gaussian, Inc.),
 the Gaussian(R) 03 system (copyright 2003, Gaussian, Inc.),
 the Gaussian(R) 98 system (copyright 1998, Gaussian, Inc.),
 the Gaussian(R) 94 system (copyright 1995, Gaussian, Inc.),
 the Gaussian 92(TM) system (copyright 1992, Gaussian, Inc.),
 the Gaussian 90(TM) system (copyright 1990, Gaussian, Inc.),
 the Gaussian 88(TM) system (copyright 1988, Gaussian, Inc.),
 the Gaussian 86(TM) system (copyright 1986, Carnegie Mellon
 University), and the Gaussian 82(TM) system (copyright 1983,
 Carnegie Mellon University). Gaussian is a federally registered
 trademark of Gaussian, Inc.
  
 This software contains proprietary and confidential information,
 including trade secrets, belonging to Gaussian, Inc.
  
 This software is provided under written license and may be
 used, copied, transmitted, or stored only in accord with that
 written license.
  
 The following legend is applicable only to US Government
 contracts under FAR:
  
                    RESTRICTED RIGHTS LEGEND
  
 Use, reproduction and disclosure by the US Government is
 subject to restrictions as set forth in subparagraphs (a)
 and (c) of the Commercial Computer Software - Restricted
 Rights clause in FAR 52.227-19.
  
 Gaussian, Inc.
 340 Quinnipiac St., Bldg. 40, Wallingford CT 06492
  
  
 ---------------------------------------------------------------
 Warning -- This program may not be used in any manner that
 competes with the business of Gaussian, Inc. or will provide
 assistance to any competitor of Gaussian, Inc.  The licensee
 of this program is prohibited from giving any competitor of
 Gaussian, Inc. access to this program.  By using this program,
 the user acknowledges that Gaussian, Inc. is engaged in the
 business of creating and licensing software in the field of
 computational chemistry and represents and warrants to the
 licensee that it is not a competitor of Gaussian, Inc. and that
 it will not use this program in any manner prohibited above.
 ---------------------------------------------------------------
  

 Cite this work as:
 Gaussian 16, Revision A.03,
 M. J. Frisch, G. W. Trucks, H. B. Schlegel, G. E. Scuseria, 
 M. A. Robb, J. R. Cheeseman, G. Scalmani, V. Barone, 
 G. A. Petersson, H. Nakatsuji, X. Li, M. Caricato, A. V. Marenich, 
 J. Bloino, B. G. Janesko, R. Gomperts, B. Mennucci, H. P. Hratchian, 
 J. V. Ortiz, A. F. Izmaylov, J. L. Sonnenberg, D. Williams-Young, 
 F. Ding, F. Lipparini, F. Egidi, J. Goings, B. Peng, A. Petrone, 
 T. Henderson, D. Ranasinghe, V. G. Zakrzewski, J. Gao, N. Rega, 
 G. Zheng, W. Liang, M. Hada, M. Ehara, K. Toyota, R. Fukuda, 
 J. Hasegawa, M. Ishida, T. Nakajima, Y. Honda, O. Kitao, H. Nakai, 
 T. Vreven, K. Throssell, J. A. Montgomery, Jr., J. E. Peralta, 
 F. Ogliaro, M. J. Bearpark, J. J. Heyd, E. N. Brothers, K. N. Kudin, 
 V. N. Staroverov, T. A. Keith, R. Kobayashi, J. Normand, 
 K. Raghavachari, A. P. Rendell, J. C. Burant, S. S. Iyengar, 
 J. Tomasi, M. Cossi, J. M. Millam, M. Klene, C. Adamo, R. Cammi, 
 J. W. Ochterski, R. L. Martin, K. Morokuma, O. Farkas, 
 J. B. Foresman, and D. J. Fox, Gaussian, Inc., Wallingford CT, 2016.
 
 ******************************************
 Gaussian 16:  ES64L-G16RevA.03 25-Dec-2016
                12-Mar-2024 
 ******************************************
 %nprocshared=4
 Will use up to    4 processors via shared memory.
 %mem=16GB
 %chk=trans-2-butene_JETWEI.chk
 -------------------------
 # opt freq b3lyp 6-31g(d)
 -------------------------
 1/18=20,19=15,26=3,38=1/1,3;
 2/9=110,12=2,17=6,18=5,40=1/2;
 3/5=1,6=6,7=1,11=2,25=1,30=1,71=1,74=-5/1,2,3;
 4//1;
 5/5=2,38=5/2;
 6/7=2,8=2,9=2,10=2,28=1/1;
 7//1,2,3,16;
 1/18=20,19=15,26=3/3(2);
 2/9=110/2;
 99//99;
 2/9=110/2;
 3/5=1,6=6,7=1,11=2,25=1,30=1,71=1,74=-5/1,2,3;
 4/5=5,16=3,69=1/1;
 5/5=2,38=5/2;
 7//1,2,3,16;
 1/18=20,19=15,26=3/3(-5);
 2/9=110/2;
 6/7=2,8=2,9=2,10=2,19=2,28=1/1;
 99/9=1/99;
 ---------------------
 trans-2-butene_JETWEI
 ---------------------
 Symbolic Z-matrix:
 Charge =  0 Multiplicity = 1
 C                    -2.56028   0.1225    0.37133 
 C                    -0.80131   0.18256   0.04673 
 H                    -0.32693   0.8626   -0.48662 
 H                    -3.11412  -0.44663   0.87133 
 C                    -4.14863   1.33536   1.18593 
 H                    -3.79195   1.83976   2.05958 
 H                    -3.79195   1.83976   0.31228 
 H                    -5.21863   1.33538   1.18593 
 C                     0.68751  -1.54745   0.76556 
 H                     1.04416  -2.55626   0.76556 
 H                     1.04418  -1.04305   1.63921 
 H                     1.04418  -1.04305  -0.10809 
 
 Add virtual bond connecting atoms C5         and C1         Dist= 4.08D+00.
 Add virtual bond connecting atoms C5         and H4         Dist= 3.94D+00.
 Add virtual bond connecting atoms H7         and C1         Dist= 4.00D+00.
 Add virtual bond connecting atoms H12        and C2         Dist= 4.20D+00.
 Add virtual bond connecting atoms H12        and H3         Dist= 4.49D+00.

 GradGradGradGradGradGradGradGradGradGradGradGradGradGradGradGradGradGrad
 Berny optimization.
 Initialization pass.
                           ----------------------------
                           !    Initial Parameters    !
                           ! (Angstroms and Degrees)  !
 --------------------------                            --------------------------
 ! Name  Definition              Value          Derivative Info.                !
 --------------------------------------------------------------------------------
 ! R1    R(1,2)                  1.7897         estimate D2E/DX2                !
 ! R2    R(1,4)                  0.9384         estimate D2E/DX2                !
 ! R3    R(1,5)                  2.1581         estimate D2E/DX2                !
 ! R4    R(1,7)                  2.1141         estimate D2E/DX2                !
 ! R5    R(2,3)                  0.9859         estimate D2E/DX2                !
 ! R6    R(2,12)                 2.2208         estimate D2E/DX2                !
 ! R7    R(3,12)                 2.378          estimate D2E/DX2                !
 ! R8    R(4,5)                  2.0844         estimate D2E/DX2                !
 ! R9    R(5,6)                  1.07           estimate D2E/DX2                !
 ! R10   R(5,7)                  1.07           estimate D2E/DX2                !
 ! R11   R(5,8)                  1.07           estimate D2E/DX2                !
 ! R12   R(9,10)                 1.07           estimate D2E/DX2                !
 ! R13   R(9,11)                 1.07           estimate D2E/DX2                !
 ! R14   R(9,12)                 1.07           estimate D2E/DX2                !
 ! A1    A(2,1,4)              134.1895         estimate D2E/DX2                !
 ! A2    A(2,1,5)              140.6207         estimate D2E/DX2                !
 ! A3    A(2,1,7)              122.7023         estimate D2E/DX2                !
 ! A4    A(4,1,7)               99.4207         estimate D2E/DX2                !
 ! A5    A(1,2,3)              126.455          estimate D2E/DX2                !
 ! A6    A(1,2,12)             144.1812         estimate D2E/DX2                !
 ! A7    A(1,5,6)              109.1346         estimate D2E/DX2                !
 ! A8    A(1,5,8)              137.3914         estimate D2E/DX2                !
 ! A9    A(4,5,6)              111.1496         estimate D2E/DX2                !
 ! A10   A(4,5,7)               96.5654         estimate D2E/DX2                !
 ! A11   A(4,5,8)              119.7569         estimate D2E/DX2                !
 ! A12   A(6,5,7)              109.4713         estimate D2E/DX2                !
 ! A13   A(6,5,8)              109.4712         estimate D2E/DX2                !
 ! A14   A(7,5,8)              109.4712         estimate D2E/DX2                !
 ! A15   A(10,9,11)            109.4712         estimate D2E/DX2                !
 ! A16   A(10,9,12)            109.4712         estimate D2E/DX2                !
 ! A17   A(11,9,12)            109.4713         estimate D2E/DX2                !
 ! A18   A(2,12,9)              85.7693         estimate D2E/DX2                !
 ! A19   A(3,12,9)             108.3934         estimate D2E/DX2                !
 ! D1    D(4,1,2,3)           -178.0172         estimate D2E/DX2                !
 ! D2    D(4,1,2,12)            27.4667         estimate D2E/DX2                !
 ! D3    D(5,1,2,3)            -55.5594         estimate D2E/DX2                !
 ! D4    D(5,1,2,12)           149.9245         estimate D2E/DX2                !
 ! D5    D(7,1,2,3)            -24.4561         estimate D2E/DX2                !
 ! D6    D(7,1,2,12)          -178.9722         estimate D2E/DX2                !
 ! D7    D(2,1,5,6)            -41.5301         estimate D2E/DX2                !
 ! D8    D(2,1,5,8)            164.5251         estimate D2E/DX2                !
 ! D9    D(1,2,12,9)           -42.2942         estimate D2E/DX2                !
 ! D10   D(10,9,12,2)          150.9433         estimate D2E/DX2                !
 ! D11   D(10,9,12,3)          160.3531         estimate D2E/DX2                !
 ! D12   D(11,9,12,2)          -89.0567         estimate D2E/DX2                !
 ! D13   D(11,9,12,3)          -79.6469         estimate D2E/DX2                !
 --------------------------------------------------------------------------------
 Trust Radius=3.00D-01 FncErr=1.00D-07 GrdErr=1.00D-06 EigMax=2.50D+02 EigMin=1.00D-04
 Number of steps in this run=     56 maximum allowed number of steps=    100.
 GradGradGradGradGradGradGradGradGradGradGradGradGradGradGradGradGradGrad

                          Input orientation:                          
 ---------------------------------------------------------------------
 Center     Atomic      Atomic             Coordinates (Angstroms)
 Number     Number       Type             X           Y           Z
 ---------------------------------------------------------------------
      1          6           0       -2.560284    0.122502    0.371327
      2          6           0       -0.801314    0.182558    0.046725
      3          1           0       -0.326929    0.862600   -0.486621
      4          1           0       -3.114120   -0.446635    0.871331
      5          6           0       -4.148627    1.335362    1.185928
      6          1           0       -3.791954    1.839761    2.059579
      7          1           0       -3.791954    1.839761    0.312276
      8          1           0       -5.218627    1.335376    1.185928
      9          6           0        0.687508   -1.547449    0.765557
     10          1           0        1.044162   -2.556259    0.765557
     11          1           0        1.044181   -1.043050    1.639209
     12          1           0        1.044181   -1.043050   -0.108094
 ---------------------------------------------------------------------
                    Distance matrix (angstroms):
                    1          2          3          4          5
     1  C    0.000000
     2  C    1.789678   0.000000
     3  H    2.504335   0.985878   0.000000
     4  H    0.938433   2.534744   3.365496   0.000000
     5  C    2.158110   3.719038   4.198369   2.084392   0.000000
     6  H    2.704844   3.967598   4.409578   2.664394   1.070000
     7  H    2.114113   3.429397   3.687747   2.449409   1.070000
     8  H    3.033385   4.705255   5.191305   2.775515   1.070000
     9  C    3.673187   2.392955   2.899201   3.959211   5.645840
    10  H    4.508127   3.379884   3.890557   4.664012   6.502806
    11  H    3.994772   2.728364   3.167111   4.270458   5.729534
    12  H    3.818445   2.220796   2.377967   4.313519   5.856329
                    6          7          8          9         10
     6  H    0.000000
     7  H    1.747303   0.000000
     8  H    1.747303   1.747303   0.000000
     9  C    5.763095   5.634202   6.585576   0.000000
    10  H    6.662394   6.551219   7.385395   1.070000   0.000000
    11  H    5.645840   5.784423   6.714547   1.070000   1.747302
    12  H    6.033043   5.645840   6.823061   1.070000   1.747302
                   11         12
    11  H    0.000000
    12  H    1.747303   0.000000
 Stoichiometry    C4H8
 Framework group  C1[X(C4H8)]
 Deg. of freedom    30
 Full point group                 C1      NOp   1
 Largest Abelian subgroup         C1      NOp   1
 Largest concise Abelian subgroup C1      NOp   1
                         Standard orientation:                         
 ---------------------------------------------------------------------
 Center     Atomic      Atomic             Coordinates (Angstroms)
 Number     Number       Type             X           Y           Z
 ---------------------------------------------------------------------
      1          6           0       -0.778449    0.008588   -0.481010
      2          6           0        0.761063    0.760431    0.036273
      3          1           0        0.898757    1.706034    0.278822
      4          1           0       -1.035586   -0.864397   -0.709996
      5          6           0       -2.815148   -0.249542    0.184322
      6          1           0       -2.816868   -0.468999    1.231573
      7          1           0       -2.668099    0.800458    0.040181
      8          1           0       -3.752204   -0.540374   -0.242577
      9          6           0        2.825795   -0.448935    0.059732
     10          1           0        3.617522   -0.988646   -0.416480
     11          1           0        2.824074   -0.668392    1.106984
     12          1           0        2.972844    0.601065   -0.084408
 ---------------------------------------------------------------------
 Rotational constants (GHZ):          21.4507862           1.8489325           1.7839505
 Standard basis: 6-31G(d) (6D, 7F)
 There are    76 symmetry adapted cartesian basis functions of A   symmetry.
 There are    76 symmetry adapted basis functions of A   symmetry.
    76 basis functions,   144 primitive gaussians,    76 cartesian basis functions
    16 alpha electrons       16 beta electrons
       nuclear repulsion energy        91.9745152871 Hartrees.
 NAtoms=   12 NActive=   12 NUniq=   12 SFac= 1.00D+00 NAtFMM=   60 NAOKFM=F Big=F
 Integral buffers will be    131072 words long.
 Raffenetti 2 integral format.
 Two-electron integral symmetry is turned on.
 One-electron integrals computed using PRISM.
 NBasis=    76 RedAO= T EigKep=  1.56D-02  NBF=    76
 NBsUse=    76 1.00D-06 EigRej= -1.00D+00 NBFU=    76
 ExpMin= 1.61D-01 ExpMax= 3.05D+03 ExpMxC= 4.57D+02 IAcc=3 IRadAn=         5 AccDes= 0.00D+00
 Harris functional with IExCor=  402 and IRadAn=       5 diagonalized for initial guess.
 HarFok:  IExCor=  402 AccDes= 0.00D+00 IRadAn=         5 IDoV= 1 UseB2=F ITyADJ=14
 ICtDFT=  3500011 ScaDFX=  1.000000  1.000000  1.000000  1.000000
 FoFCou: FMM=F IPFlag=           0 FMFlag=      100000 FMFlg1=           0
         NFxFlg=           0 DoJE=T BraDBF=F KetDBF=T FulRan=T
         wScrn=  0.000000 ICntrl=       500 IOpCl=  0 I1Cent=   200000004 NGrid=           0
         NMat0=    1 NMatS0=      1 NMatT0=    0 NMatD0=    1 NMtDS0=    0 NMtDT0=    0
 Petite list used in FoFCou.
 Keep R1 ints in memory in canonical form, NReq=7884897.
 Requested convergence on RMS density matrix=1.00D-08 within 128 cycles.
 Requested convergence on MAX density matrix=1.00D-06.
 Requested convergence on             energy=1.00D-06.
 No special actions if energy rises.
 Integral accuracy reduced to 1.0D-05 until final iterations.
 EnCoef did     2 forward-backward iterations
 Initial convergence to 1.0D-05 achieved.  Increase integral accuracy.
 SCF Done:  E(RB3LYP) =  -156.753216037     A.U. after   17 cycles
            NFock= 17  Conv=0.65D-08     -V/T= 2.0118

 **********************************************************************

            Population analysis using the SCF density.

 **********************************************************************

 Orbital symmetries:
       Occupied  (A) (A) (A) (A) (A) (A) (A) (A) (A) (A) (A) (A)
                 (A) (A) (A) (A)
       Virtual   (A) (A) (A) (A) (A) (A) (A) (A) (A) (A) (A) (A)
                 (A) (A) (A) (A) (A) (A) (A) (A) (A) (A) (A) (A)
                 (A) (A) (A) (A) (A) (A) (A) (A) (A) (A) (A) (A)
                 (A) (A) (A) (A) (A) (A) (A) (A) (A) (A) (A) (A)
                 (A) (A) (A) (A) (A) (A) (A) (A) (A) (A) (A) (A)
 The electronic state is 1-A.
 Alpha  occ. eigenvalues --  -10.27062 -10.24463 -10.21686 -10.18576  -0.70409
 Alpha  occ. eigenvalues --   -0.69193  -0.65792  -0.60771  -0.42080  -0.41358
 Alpha  occ. eigenvalues --   -0.40611  -0.40304  -0.39635  -0.27467  -0.22856
 Alpha  occ. eigenvalues --   -0.20794
 Alpha virt. eigenvalues --   -0.11063  -0.06947  -0.02175   0.09392   0.13497
 Alpha virt. eigenvalues --    0.14422   0.17648   0.17998   0.18590   0.19508
 Alpha virt. eigenvalues --    0.20383   0.24361   0.48367   0.50466   0.51063
 Alpha virt. eigenvalues --    0.55899   0.57395   0.60684   0.61688   0.63751
 Alpha virt. eigenvalues --    0.65013   0.71753   0.78037   0.78736   0.81856
 Alpha virt. eigenvalues --    0.89405   0.89861   0.91090   0.91850   0.93775
 Alpha virt. eigenvalues --    0.97396   0.98858   1.00908   1.03546   1.10952
 Alpha virt. eigenvalues --    1.13691   1.51843   1.56517   1.63242   1.64016
 Alpha virt. eigenvalues --    1.66311   1.68359   1.70900   1.76506   1.87405
 Alpha virt. eigenvalues --    1.88934   1.91238   1.93246   2.09151   2.21885
 Alpha virt. eigenvalues --    2.26811   2.28664   2.29010   2.30963   2.42020
 Alpha virt. eigenvalues --    2.48233   3.91514   4.12336   4.15253   4.20205
          Condensed to atoms (all electrons):
               1          2          3          4          5          6
     1  C    5.301533   0.465474  -0.024076   0.342553   0.186582  -0.009560
     2  C    0.465474   5.351571   0.303543  -0.023490  -0.002638  -0.000428
     3  H   -0.024076   0.303543   0.529421   0.001337  -0.000187   0.000008
     4  H    0.342553  -0.023490   0.001337   0.513421  -0.057218   0.000829
     5  C    0.186582  -0.002638  -0.000187  -0.057218   5.326780   0.378028
     6  H   -0.009560  -0.000428   0.000008   0.000829   0.378028   0.527850
     7  H   -0.031960   0.000120   0.000033  -0.001648   0.371833  -0.028849
     8  H   -0.001458   0.000122  -0.000000   0.000301   0.373149  -0.040723
     9  C   -0.006726   0.171622  -0.014478  -0.000440   0.000101  -0.000002
    10  H    0.000034  -0.000131   0.000092   0.000014  -0.000000  -0.000000
    11  H    0.000076  -0.007996   0.000729   0.000012  -0.000003   0.000000
    12  H    0.000387  -0.027929   0.002913  -0.000007  -0.000002   0.000000
               7          8          9         10         11         12
     1  C   -0.031960  -0.001458  -0.006726   0.000034   0.000076   0.000387
     2  C    0.000120   0.000122   0.171622  -0.000131  -0.007996  -0.027929
     3  H    0.000033  -0.000000  -0.014478   0.000092   0.000729   0.002913
     4  H   -0.001648   0.000301  -0.000440   0.000014   0.000012  -0.000007
     5  C    0.371833   0.373149   0.000101  -0.000000  -0.000003  -0.000002
     6  H   -0.028849  -0.040723  -0.000002  -0.000000   0.000000   0.000000
     7  H    0.527362  -0.033764  -0.000006   0.000000   0.000000   0.000000
     8  H   -0.033764   0.529383  -0.000000   0.000000   0.000000   0.000000
     9  C   -0.000006  -0.000000   5.202172   0.370254   0.380537   0.373213
    10  H    0.000000   0.000000   0.370254   0.526404  -0.040467  -0.036018
    11  H    0.000000   0.000000   0.380537  -0.040467   0.522709  -0.034642
    12  H    0.000000   0.000000   0.373213  -0.036018  -0.034642   0.543289
 Mulliken charges:
               1
     1  C   -0.222861
     2  C   -0.229840
     3  H    0.200664
     4  H    0.224336
     5  C   -0.576424
     6  H    0.172847
     7  H    0.196877
     8  H    0.172990
     9  C   -0.476247
    10  H    0.179818
    11  H    0.179045
    12  H    0.178795
 Sum of Mulliken charges =  -0.00000
 Mulliken charges with hydrogens summed into heavy atoms:
               1
     1  C    0.001475
     2  C   -0.029176
     5  C   -0.033711
     9  C    0.061411
 Electronic spatial extent (au):  <R**2>=            698.9159
 Charge=             -0.0000 electrons
 Dipole moment (field-independent basis, Debye):
    X=              0.9982    Y=              0.3808    Z=              0.5694  Tot=              1.2106
 Quadrupole moment (field-independent basis, Debye-Ang):
   XX=            -19.9127   YY=            -25.6502   ZZ=            -28.3900
   XY=              1.1217   XZ=              0.7396   YZ=              0.7512
 Traceless Quadrupole moment (field-independent basis, Debye-Ang):
   XX=              4.7383   YY=             -0.9992   ZZ=             -3.7391
   XY=              1.1217   XZ=              0.7396   YZ=              0.7512
 Octapole moment (field-independent basis, Debye-Ang**2):
  XXX=             11.0439  YYY=              3.7575  ZZZ=              3.4368  XYY=              3.8755
  XXY=             -6.3260  XXZ=              1.0158  XZZ=              0.0160  YZZ=             -1.8214
  YYZ=              1.1517  XYZ=              0.0649
 Hexadecapole moment (field-independent basis, Debye-Ang**3):
 XXXX=           -724.2182 YYYY=            -75.9358 ZZZZ=            -52.5715 XXXY=             -8.4571
 XXXZ=             -0.3808 YYYX=              3.1658 YYYZ=              3.0407 ZZZX=              0.3620
 ZZZY=              0.1651 XXYY=           -148.0057 XXZZ=           -145.1540 YYZZ=            -22.7091
 XXYZ=             -1.0940 YYXZ=              1.3131 ZZXY=              0.4720
 N-N= 9.197451528712D+01 E-N=-5.455629392268D+02  KE= 1.549306040845D+02
 Calling FoFJK, ICntrl=      2127 FMM=F ISym2X=0 I1Cent= 0 IOpClX= 0 NMat=1 NMatS=1 NMatT=0.
 ***** Axes restored to original set *****
 -------------------------------------------------------------------
 Center     Atomic                   Forces (Hartrees/Bohr)
 Number     Number              X              Y              Z
 -------------------------------------------------------------------
      1        6           0.188296045    0.113213024   -0.080432168
      2        6          -0.204597243   -0.111883154    0.120104228
      3        1           0.045471400    0.065519978   -0.056236483
      4        1          -0.056041779   -0.132371296    0.077718927
      5        6           0.049852084    0.030054062   -0.038602972
      6        1           0.014044940   -0.002143779    0.012971580
      7        1          -0.010289092    0.028314324   -0.004268768
      8        1          -0.015138184   -0.031453648   -0.005509829
      9        6           0.004784828    0.056026076   -0.027650420
     10        1          -0.026743695   -0.025725061   -0.004143957
     11        1          -0.007683247    0.010646252    0.013213355
     12        1           0.018043941   -0.000196777   -0.007163493
 -------------------------------------------------------------------
 Cartesian Forces:  Max     0.204597243 RMS     0.069369947

 GradGradGradGradGradGradGradGradGradGradGradGradGradGradGradGradGradGrad
 Berny optimization.
 FormGI is forming the generalized inverse of G from B-inverse, IUseBI=4.
 Internal  Forces:  Max     0.174897610 RMS     0.043007417
 Search for a local minimum.
 Step number   1 out of a maximum of   56
 All quantities printed in internal units (Hartrees-Bohrs-Radians)
 Mixed Optimization -- RFO/linear search
 Second derivative matrix not updated -- first step.
 ITU=  0
     Eigenvalues ---    0.00230   0.00268   0.00499   0.00598   0.00974
     Eigenvalues ---    0.01919   0.02340   0.04380   0.05269   0.05849
     Eigenvalues ---    0.06293   0.08838   0.12418   0.14308   0.14309
     Eigenvalues ---    0.15927   0.16000   0.16000   0.16000   0.16000
     Eigenvalues ---    0.19350   0.20517   0.34199   0.37230   0.37230
     Eigenvalues ---    0.37230   0.37230   0.37230   0.48597   0.57346
 RFO step:  Lambda=-1.99221892D-01 EMin= 2.30000000D-03
 Linear search not attempted -- first point.
 Maximum step size (   0.300) exceeded in Quadratic search.
    -- Step size scaled by   0.431
 Iteration  1 RMS(Cart)=  0.11079187 RMS(Int)=  0.00412898
 Iteration  2 RMS(Cart)=  0.00565928 RMS(Int)=  0.00045813
 Iteration  3 RMS(Cart)=  0.00000993 RMS(Int)=  0.00045805
 Iteration  4 RMS(Cart)=  0.00000000 RMS(Int)=  0.00045805
 Variable       Old X    -DE/DX   Delta X   Delta X   Delta X     New X
                                 (Linear)    (Quad)   (Total)
    R1        3.38200  -0.17490   0.00000  -0.22032  -0.22032   3.16168
    R2        1.77338   0.13061   0.00000   0.07240   0.07218   1.84556
    R3        4.07824  -0.04181   0.00000  -0.06094  -0.06208   4.01616
    R4        3.99510   0.00200   0.00000   0.01307   0.01307   4.00817
    R5        1.86304   0.11148   0.00000   0.06906   0.06904   1.93208
    R6        4.19670  -0.03089   0.00000  -0.05094  -0.05104   4.14566
    R7        4.49371  -0.00528   0.00000  -0.01832  -0.01823   4.47548
    R8        3.93893   0.02924   0.00000   0.03524   0.03633   3.97526
    R9        2.02201   0.01426   0.00000   0.01076   0.01076   2.03277
   R10        2.02201   0.00200   0.00000  -0.00126  -0.00092   2.02108
   R11        2.02201   0.01514   0.00000   0.01142   0.01142   2.03343
   R12        2.02201   0.01534   0.00000   0.01157   0.01157   2.03358
   R13        2.02201   0.01325   0.00000   0.00999   0.00999   2.03200
   R14        2.02201  -0.02459   0.00000  -0.01856  -0.01856   2.00345
    A1        2.34205  -0.01737   0.00000  -0.02749  -0.02679   2.31526
    A2        2.45429  -0.01355   0.00000  -0.01872  -0.01831   2.43598
    A3        2.14156  -0.01345   0.00000  -0.01765  -0.01723   2.12433
    A4        1.73522   0.03028   0.00000   0.04708   0.04601   1.78123
    A5        2.20706  -0.00257   0.00000  -0.01062  -0.01042   2.19664
    A6        2.51644   0.01115   0.00000   0.00534   0.00551   2.52195
    A7        1.90476  -0.00604   0.00000  -0.00760  -0.00772   1.89703
    A8        2.39793  -0.01180   0.00000  -0.01972  -0.02009   2.37784
    A9        1.93993  -0.00988   0.00000  -0.01182  -0.01210   1.92783
   A10        1.68538   0.05187   0.00000   0.05270   0.05263   1.73801
   A11        2.09015  -0.04105   0.00000  -0.04341  -0.04341   2.04674
   A12        1.91063   0.00177   0.00000   0.00327   0.00308   1.91372
   A13        1.91063   0.01027   0.00000   0.01224   0.01182   1.92245
   A14        1.91063  -0.00654   0.00000  -0.00631  -0.00610   1.90453
   A15        1.91063   0.00757   0.00000   0.01898   0.01761   1.92824
   A16        1.91063   0.03069   0.00000   0.04178   0.04103   1.95166
   A17        1.91063   0.01218   0.00000   0.01957   0.01880   1.92943
   A18        1.49696  -0.08425   0.00000  -0.08479  -0.08475   1.41220
   A19        1.89182  -0.05420   0.00000  -0.05983  -0.05986   1.83196
    D1       -3.10699  -0.00607   0.00000  -0.01518  -0.01495  -3.12194
    D2        0.47938   0.00412   0.00000   0.00199   0.00221   0.48159
    D3       -0.96970   0.00015   0.00000   0.00520   0.00506  -0.96464
    D4        2.61668   0.01034   0.00000   0.02238   0.02221   2.63889
    D5       -0.42684  -0.00059   0.00000   0.00299   0.00293  -0.42391
    D6       -3.12365   0.00960   0.00000   0.02017   0.02009  -3.10356
    D7       -0.72484  -0.00636   0.00000  -0.01170  -0.01160  -0.73644
    D8        2.87150   0.01398   0.00000   0.03086   0.03058   2.90208
    D9       -0.73817   0.01364   0.00000   0.02424   0.02415  -0.71402
   D10        2.63446  -0.02569   0.00000  -0.04292  -0.04334   2.59111
   D11        2.79869  -0.02786   0.00000  -0.05595  -0.05659   2.74210
   D12       -1.55433   0.00984   0.00000   0.01789   0.01852  -1.53581
   D13       -1.39010   0.00766   0.00000   0.00486   0.00528  -1.38482
         Item               Value     Threshold  Converged?
 Maximum Force            0.174898     0.000450     NO 
 RMS     Force            0.043007     0.000300     NO 
 Maximum Displacement     0.354594     0.001800     NO 
 RMS     Displacement     0.115014     0.001200     NO 
 Predicted change in Energy=-7.716603D-02
 GradGradGradGradGradGradGradGradGradGradGradGradGradGradGradGradGradGrad

                          Input orientation:                          
 ---------------------------------------------------------------------
 Center     Atomic      Atomic             Coordinates (Angstroms)
 Number     Number       Type             X           Y           Z
 ---------------------------------------------------------------------
      1          6           0       -2.479177    0.094713    0.372770
      2          6           0       -0.836136    0.182217    0.069487
      3          1           0       -0.367440    0.899513   -0.488315
      4          1           0       -3.023791   -0.526501    0.893631
      5          6           0       -4.043238    1.292758    1.169720
      6          1           0       -3.677357    1.799649    2.045112
      7          1           0       -3.720931    1.812365    0.292235
      8          1           0       -5.118631    1.258090    1.183815
      9          6           0        0.587612   -1.468347    0.740788
     10          1           0        0.856519   -2.509458    0.783466
     11          1           0        0.875767   -0.967862    1.647831
     12          1           0        1.013029   -0.985662   -0.101839
 ---------------------------------------------------------------------
                    Distance matrix (angstroms):
                    1          2          3          4          5
     1  C    0.000000
     2  C    1.673087   0.000000
     3  H    2.418389   1.022415   0.000000
     4  H    0.976630   2.442812   3.316548   0.000000
     5  C    2.125259   3.567817   4.051570   2.103616   0.000000
     6  H    2.671923   3.819911   4.264276   2.676571   1.075694
     7  H    2.121030   3.321000   3.562087   2.513558   1.069511
     8  H    2.996324   4.554008   5.049596   2.767187   1.076044
     9  C    3.461761   2.280804   2.833651   3.735327   5.408554
    10  H    4.251735   3.258828   3.838826   4.359021   6.213989
    11  H    3.743060   2.597011   3.097704   3.996270   5.434667
    12  H    3.686186   2.193788   2.368321   4.183026   5.689807
                    6          7          8          9         10
     6  H    0.000000
     7  H    1.753465   0.000000
     8  H    1.764196   1.748056   0.000000
     9  C    5.529107   5.433950   6.339633   0.000000
    10  H    6.380924   6.314469   7.075106   1.076124   0.000000
    11  H    5.343023   5.540482   6.411161   1.075289   1.767488
    12  H    5.862344   5.513133   6.654667   1.060181   1.769241
                   11         12
    11  H    0.000000
    12  H    1.755135   0.000000
 Stoichiometry    C4H8
 Framework group  C1[X(C4H8)]
 Deg. of freedom    30
 Full point group                 C1      NOp   1
 Largest Abelian subgroup         C1      NOp   1
 Largest concise Abelian subgroup C1      NOp   1
                         Standard orientation:                         
 ---------------------------------------------------------------------
 Center     Atomic      Atomic             Coordinates (Angstroms)
 Number     Number       Type             X           Y           Z
 ---------------------------------------------------------------------
      1          6           0       -0.699042   -0.003851   -0.469948
      2          6           0        0.723665    0.728353    0.018930
      3          1           0        0.842044    1.719687    0.239332
      4          1           0       -0.926274   -0.928032   -0.689178
      5          6           0       -2.709235   -0.229756    0.181832
      6          1           0       -2.709153   -0.418039    1.240920
      7          1           0       -2.596070    0.818599    0.002947
      8          1           0       -3.634639   -0.563820   -0.253942
      9          6           0        2.694933   -0.417674    0.071785
     10          1           0        3.422180   -1.047512   -0.410356
     11          1           0        2.627239   -0.654311    1.118526
     12          1           0        2.912748    0.610988   -0.063846
 ---------------------------------------------------------------------
 Rotational constants (GHZ):          22.2641046           2.0179862           1.9452120
 Standard basis: 6-31G(d) (6D, 7F)
 There are    76 symmetry adapted cartesian basis functions of A   symmetry.
 There are    76 symmetry adapted basis functions of A   symmetry.
    76 basis functions,   144 primitive gaussians,    76 cartesian basis functions
    16 alpha electrons       16 beta electrons
       nuclear repulsion energy        94.3494402711 Hartrees.
 NAtoms=   12 NActive=   12 NUniq=   12 SFac= 1.00D+00 NAtFMM=   60 NAOKFM=F Big=F
 Integral buffers will be    131072 words long.
 Raffenetti 2 integral format.
 Two-electron integral symmetry is turned on.
 One-electron integrals computed using PRISM.
 NBasis=    76 RedAO= T EigKep=  1.49D-02  NBF=    76
 NBsUse=    76 1.00D-06 EigRej= -1.00D+00 NBFU=    76
 Initial guess from the checkpoint file:  "trans-2-butene_JETWEI.chk"
 B after Tr=    -0.000000    0.000000    0.000000
         Rot=    0.999911    0.013239    0.001780    0.000388 Ang=   1.53 deg.
 ExpMin= 1.61D-01 ExpMax= 3.05D+03 ExpMxC= 4.57D+02 IAcc=2 IRadAn=         4 AccDes= 0.00D+00
 Harris functional with IExCor=  402 and IRadAn=       4 diagonalized for initial guess.
 HarFok:  IExCor=  402 AccDes= 0.00D+00 IRadAn=         4 IDoV= 1 UseB2=F ITyADJ=14
 ICtDFT=  3500011 ScaDFX=  1.000000  1.000000  1.000000  1.000000
 FoFCou: FMM=F IPFlag=           0 FMFlag=      100000 FMFlg1=           0
         NFxFlg=           0 DoJE=T BraDBF=F KetDBF=T FulRan=T
         wScrn=  0.000000 ICntrl=       500 IOpCl=  0 I1Cent=   200000004 NGrid=           0
         NMat0=    1 NMatS0=      1 NMatT0=    0 NMatD0=    1 NMtDS0=    0 NMtDT0=    0
 Petite list used in FoFCou.
 Keep R1 ints in memory in canonical form, NReq=7884897.
 Requested convergence on RMS density matrix=1.00D-08 within 128 cycles.
 Requested convergence on MAX density matrix=1.00D-06.
 Requested convergence on             energy=1.00D-06.
 No special actions if energy rises.
 Integral accuracy reduced to 1.0D-05 until final iterations.
 Initial convergence to 1.0D-05 achieved.  Increase integral accuracy.
 SCF Done:  E(RB3LYP) =  -156.836393681     A.U. after   15 cycles
            NFock= 15  Conv=0.28D-08     -V/T= 2.0130
 Calling FoFJK, ICntrl=      2127 FMM=F ISym2X=0 I1Cent= 0 IOpClX= 0 NMat=1 NMatS=1 NMatT=0.
 ***** Axes restored to original set *****
 -------------------------------------------------------------------
 Center     Atomic                   Forces (Hartrees/Bohr)
 Number     Number              X              Y              Z
 -------------------------------------------------------------------
      1        6           0.154396522    0.080944905   -0.040430751
      2        6          -0.187514431   -0.091591761    0.090404169
      3        1           0.027397557    0.036875056   -0.029763175
      4        1          -0.021805177   -0.097152704    0.046181380
      5        6           0.049675820    0.028279082   -0.040051556
      6        1           0.011734220   -0.003681049    0.009113265
      7        1          -0.010804160    0.029342069   -0.004198742
      8        1          -0.009426584   -0.030808066   -0.004581952
      9        6          -0.006919850    0.058217515   -0.017102699
     10        1          -0.027626744   -0.017477901   -0.006306266
     11        1          -0.003987616    0.006715623    0.008084944
     12        1           0.024880442    0.000337231   -0.011348616
 -------------------------------------------------------------------
 Cartesian Forces:  Max     0.187514431 RMS     0.055693679

 GradGradGradGradGradGradGradGradGradGradGradGradGradGradGradGradGradGrad
 Berny optimization.
 Using GEDIIS/GDIIS optimizer.
 FormGI is forming the generalized inverse of G from B-inverse, IUseBI=4.
 Internal  Forces:  Max     0.177169714 RMS     0.038506127
 Search for a local minimum.
 Step number   2 out of a maximum of   56
 All quantities printed in internal units (Hartrees-Bohrs-Radians)
 Mixed Optimization -- RFO/linear search
 Update second derivatives using D2CorX and points    1    2
 DE= -8.32D-02 DEPred=-7.72D-02 R= 1.08D+00
 TightC=F SS=  1.41D+00  RLast= 3.13D-01 DXNew= 5.0454D-01 9.3944D-01
 Trust test= 1.08D+00 RLast= 3.13D-01 DXMaxT set to 5.05D-01
 ITU=  1  0
 Use linear search instead of GDIIS.
 Linear search step of   0.600 exceeds DXMaxT=   0.505 but not scaled.
 Quartic linear search produced a step of  2.00000.
 Iteration  1 RMS(Cart)=  0.18596595 RMS(Int)=  0.03746421
 Iteration  2 RMS(Cart)=  0.04837335 RMS(Int)=  0.00683870
 Iteration  3 RMS(Cart)=  0.00998368 RMS(Int)=  0.00263690
 Iteration  4 RMS(Cart)=  0.00000976 RMS(Int)=  0.00263688
 Iteration  5 RMS(Cart)=  0.00000002 RMS(Int)=  0.00263688
 Variable       Old X    -DE/DX   Delta X   Delta X   Delta X     New X
                                 (Linear)    (Quad)   (Total)
    R1        3.16168  -0.17717  -0.44065   0.00000  -0.44065   2.72103
    R2        1.84556   0.07640   0.14437   0.00000   0.14270   1.98826
    R3        4.01616  -0.04790  -0.12416   0.00000  -0.13025   3.88591
    R4        4.00817   0.00698   0.02614   0.00000   0.02615   4.03431
    R5        1.93208   0.07370   0.13809   0.00000   0.13803   2.07011
    R6        4.14566  -0.03209  -0.10208   0.00000  -0.10259   4.04307
    R7        4.47548  -0.01079  -0.03646   0.00000  -0.03596   4.43951
    R8        3.97526   0.02594   0.07266   0.00000   0.07837   4.05362
    R9        2.03277   0.00967   0.02152   0.00000   0.02152   2.05429
   R10        2.02108   0.00112  -0.00185   0.00000   0.00005   2.02113
   R11        2.03343   0.01035   0.02284   0.00000   0.02284   2.05627
   R12        2.03358   0.00976   0.02315   0.00000   0.02315   2.05673
   R13        2.03200   0.00888   0.01999   0.00000   0.01999   2.05199
   R14        2.00345  -0.01832  -0.03711   0.00000  -0.03711   1.96634
    A1        2.31526  -0.01632  -0.05358   0.00000  -0.04983   2.26543
    A2        2.43598  -0.01490  -0.03663   0.00000  -0.03457   2.40141
    A3        2.12433  -0.01516  -0.03446   0.00000  -0.03194   2.09239
    A4        1.78123   0.03154   0.09203   0.00000   0.08598   1.86721
    A5        2.19664  -0.00176  -0.02084   0.00000  -0.01964   2.17700
    A6        2.52195   0.00637   0.01103   0.00000   0.01199   2.53394
    A7        1.89703  -0.00480  -0.01545   0.00000  -0.01633   1.88070
    A8        2.37784  -0.01588  -0.04019   0.00000  -0.04246   2.33537
    A9        1.92783  -0.00865  -0.02420   0.00000  -0.02565   1.90218
   A10        1.73801   0.04404   0.10526   0.00000   0.10451   1.84253
   A11        2.04674  -0.03538  -0.08682   0.00000  -0.08649   1.96025
   A12        1.91372   0.00001   0.00617   0.00000   0.00514   1.91886
   A13        1.92245   0.01056   0.02363   0.00000   0.02118   1.94363
   A14        1.90453  -0.00677  -0.01220   0.00000  -0.01093   1.89361
   A15        1.92824   0.00528   0.03521   0.00000   0.02723   1.95547
   A16        1.95166   0.02571   0.08205   0.00000   0.07680   2.02846
   A17        1.92943   0.00700   0.03759   0.00000   0.03214   1.96157
   A18        1.41220  -0.08878  -0.16951   0.00000  -0.16915   1.24305
   A19        1.83196  -0.06734  -0.11972   0.00000  -0.12004   1.71192
    D1       -3.12194  -0.00542  -0.02991   0.00000  -0.02854   3.13270
    D2        0.48159   0.00069   0.00441   0.00000   0.00559   0.48718
    D3       -0.96464   0.00462   0.01011   0.00000   0.00946  -0.95518
    D4        2.63889   0.01074   0.04443   0.00000   0.04359   2.68248
    D5       -0.42391   0.00204   0.00586   0.00000   0.00543  -0.41848
    D6       -3.10356   0.00816   0.04018   0.00000   0.03956  -3.06400
    D7       -0.73644  -0.00830  -0.02321   0.00000  -0.02249  -0.75893
    D8        2.90208   0.01534   0.06116   0.00000   0.05934   2.96142
    D9       -0.71402   0.01066   0.04830   0.00000   0.04764  -0.66638
   D10        2.59111  -0.02437  -0.08669   0.00000  -0.08862   2.50250
   D11        2.74210  -0.02780  -0.11318   0.00000  -0.11665   2.62545
   D12       -1.53581   0.00596   0.03705   0.00000   0.04052  -1.49529
   D13       -1.38482   0.00253   0.01055   0.00000   0.01248  -1.37234
         Item               Value     Threshold  Converged?
 Maximum Force            0.177170     0.000450     NO 
 RMS     Force            0.038506     0.000300     NO 
 Maximum Displacement     0.732666     0.001800     NO 
 RMS     Displacement     0.230591     0.001200     NO 
 Predicted change in Energy=-1.488568D-01
 GradGradGradGradGradGradGradGradGradGradGradGradGradGradGradGradGradGrad

                          Input orientation:                          
 ---------------------------------------------------------------------
 Center     Atomic      Atomic             Coordinates (Angstroms)
 Number     Number       Type             X           Y           Z
 ---------------------------------------------------------------------
      1          6           0       -2.315684    0.042983    0.382177
      2          6           0       -0.904747    0.170989    0.124879
      3          1           0       -0.450407    0.960360   -0.483803
      4          1           0       -2.835123   -0.679933    0.943051
      5          6           0       -3.833955    1.208865    1.133226
      6          1           0       -3.453203    1.723427    2.011863
      7          1           0       -3.580765    1.757616    0.250799
      8          1           0       -4.916010    1.101699    1.174503
      9          6           0        0.395408   -1.314671    0.698736
     10          1           0        0.468809   -2.396489    0.792750
     11          1           0        0.543986   -0.812004    1.649712
     12          1           0        0.947915   -0.881366   -0.069191
 ---------------------------------------------------------------------
                    Distance matrix (angstroms):
                    1          2          3          4          5
     1  C    0.000000
     2  C    1.439906   0.000000
     3  H    2.251834   1.095457   0.000000
     4  H    1.052143   2.262703   3.226971   0.000000
     5  C    2.056332   3.267141   3.758316   2.145086   0.000000
     6  H    2.602636   3.530637   3.978367   2.701948   1.087083
     7  H    2.134867   3.113570   3.312763   2.641372   1.069537
     8  H    2.917251   4.249489   4.765665   2.749159   1.088131
     9  C    3.048516   2.055943   2.699920   3.301350   4.944141
    10  H    3.724647   2.987416   3.707153   3.726274   5.623903
    11  H    3.242740   2.321685   2.946520   3.454734   4.849437
    12  H    3.421875   2.139502   2.349289   3.921298   5.355479
                    6          7          8          9         10
     6  H    0.000000
     7  H    1.766008   0.000000
     8  H    1.796530   1.751095   0.000000
     9  C    5.076036   5.044755   5.854601   0.000000
    10  H    5.817398   5.826607   6.432677   1.088373   0.000000
    11  H    4.747323   5.057023   5.805139   1.085866   1.802950
    12  H    5.521373   5.251244   6.313868   1.040543   1.807784
                   11         12
    11  H    0.000000
    12  H    1.767088   0.000000
 Stoichiometry    C4H8
 Framework group  C1[X(C4H8)]
 Deg. of freedom    30
 Full point group                 C1      NOp   1
 Largest Abelian subgroup         C1      NOp   1
 Largest concise Abelian subgroup C1      NOp   1
                         Standard orientation:                         
 ---------------------------------------------------------------------
 Center     Atomic      Atomic             Coordinates (Angstroms)
 Number     Number       Type             X           Y           Z
 ---------------------------------------------------------------------
      1          6           0       -0.543227   -0.030042   -0.439484
      2          6           0        0.651480    0.653133   -0.016075
      3          1           0        0.729799    1.734479    0.140711
      4          1           0       -0.705430   -1.053748   -0.620374
      5          6           0       -2.500315   -0.186542    0.171922
      6          1           0       -2.501725   -0.302140    1.252840
      7          1           0       -2.455058    0.850953   -0.083941
      8          1           0       -3.396787   -0.613134   -0.273485
      9          6           0        2.440405   -0.353912    0.095771
     10          1           0        3.013413   -1.135359   -0.399767
     11          1           0        2.235040   -0.595545    1.134300
     12          1           0        2.790693    0.618663   -0.023088
 ---------------------------------------------------------------------
 Rotational constants (GHZ):          24.3751329           2.4241100           2.3325966
 Standard basis: 6-31G(d) (6D, 7F)
 There are    76 symmetry adapted cartesian basis functions of A   symmetry.
 There are    76 symmetry adapted basis functions of A   symmetry.
    76 basis functions,   144 primitive gaussians,    76 cartesian basis functions
    16 alpha electrons       16 beta electrons
       nuclear repulsion energy       100.0984826004 Hartrees.
 NAtoms=   12 NActive=   12 NUniq=   12 SFac= 1.00D+00 NAtFMM=   60 NAOKFM=F Big=F
 Integral buffers will be    131072 words long.
 Raffenetti 2 integral format.
 Two-electron integral symmetry is turned on.
 One-electron integrals computed using PRISM.
 NBasis=    76 RedAO= T EigKep=  7.90D-03  NBF=    76
 NBsUse=    76 1.00D-06 EigRej= -1.00D+00 NBFU=    76
 Initial guess from the checkpoint file:  "trans-2-butene_JETWEI.chk"
 B after Tr=    -0.000000   -0.000000   -0.000000
         Rot=    0.999525    0.030540    0.004097    0.000813 Ang=   3.53 deg.
 ExpMin= 1.61D-01 ExpMax= 3.05D+03 ExpMxC= 4.57D+02 IAcc=2 IRadAn=         4 AccDes= 0.00D+00
 Harris functional with IExCor=  402 and IRadAn=       4 diagonalized for initial guess.
 HarFok:  IExCor=  402 AccDes= 0.00D+00 IRadAn=         4 IDoV= 1 UseB2=F ITyADJ=14
 ICtDFT=  3500011 ScaDFX=  1.000000  1.000000  1.000000  1.000000
 FoFCou: FMM=F IPFlag=           0 FMFlag=      100000 FMFlg1=           0
         NFxFlg=           0 DoJE=T BraDBF=F KetDBF=T FulRan=T
         wScrn=  0.000000 ICntrl=       500 IOpCl=  0 I1Cent=   200000004 NGrid=           0
         NMat0=    1 NMatS0=      1 NMatT0=    0 NMatD0=    1 NMtDS0=    0 NMtDT0=    0
 Petite list used in FoFCou.
 Keep R1 ints in memory in canonical form, NReq=7884897.
 Requested convergence on RMS density matrix=1.00D-08 within 128 cycles.
 Requested convergence on MAX density matrix=1.00D-06.
 Requested convergence on             energy=1.00D-06.
 No special actions if energy rises.
 Integral accuracy reduced to 1.0D-05 until final iterations.
 Initial convergence to 1.0D-05 achieved.  Increase integral accuracy.
 SCF Done:  E(RB3LYP) =  -156.976462278     A.U. after   14 cycles
            NFock= 14  Conv=0.41D-08     -V/T= 2.0137
 Calling FoFJK, ICntrl=      2127 FMM=F ISym2X=0 I1Cent= 0 IOpClX= 0 NMat=1 NMatS=1 NMatT=0.
 ***** Axes restored to original set *****
 -------------------------------------------------------------------
 Center     Atomic                   Forces (Hartrees/Bohr)
 Number     Number              X              Y              Z
 -------------------------------------------------------------------
      1        6           0.050035274    0.025495526    0.033305119
      2        6          -0.104762284   -0.057433486    0.027070276
      3        1           0.005615580   -0.004873289    0.009497532
      4        1           0.017360765   -0.040217662    0.001704992
      5        6           0.049707372    0.023065005   -0.042357361
      6        1           0.006791890   -0.006308570    0.002095392
      7        1          -0.011789170    0.030248237   -0.003917104
      8        1           0.001455778   -0.028198994   -0.002982344
      9        6          -0.037500204    0.061393059    0.003056776
     10        1          -0.023771543   -0.001774699   -0.010223209
     11        1           0.007108617   -0.002570437    0.002020270
     12        1           0.039747925    0.001175310   -0.019270339
 -------------------------------------------------------------------
 Cartesian Forces:  Max     0.104762284 RMS     0.031609883

 GradGradGradGradGradGradGradGradGradGradGradGradGradGradGradGradGradGrad
 Berny optimization.
 Using GEDIIS/GDIIS optimizer.
 FormGI is forming the generalized inverse of G from B-inverse, IUseBI=4.
 Internal  Forces:  Max     0.113811543 RMS     0.029539162
 Search for a local minimum.
 Step number   3 out of a maximum of   56
 All quantities printed in internal units (Hartrees-Bohrs-Radians)
 Mixed Optimization -- RFO/linear search
 Update second derivatives using D2CorX and points    2    3
 ITU=  0  1  0
 Use linear search instead of GDIIS.
 Linear search step of   0.573 exceeds DXMaxT=   0.505 but not scaled.
 Quartic linear search produced a step of  0.95778.
 Iteration  1 RMS(Cart)=  0.18036205 RMS(Int)=  0.03453313
 Iteration  2 RMS(Cart)=  0.04684448 RMS(Int)=  0.00468988
 Iteration  3 RMS(Cart)=  0.00556154 RMS(Int)=  0.00306566
 Iteration  4 RMS(Cart)=  0.00000283 RMS(Int)=  0.00306566
 Iteration  5 RMS(Cart)=  0.00000000 RMS(Int)=  0.00306566
 Variable       Old X    -DE/DX   Delta X   Delta X   Delta X     New X
                                 (Linear)    (Quad)   (Total)
    R1        2.72103  -0.11381  -0.42205   0.00000  -0.42205   2.29898
    R2        1.98826   0.00220   0.13667   0.00000   0.13451   2.12277
    R3        3.88591  -0.05538  -0.12475   0.00000  -0.13122   3.75469
    R4        4.03431   0.01443   0.02505   0.00000   0.02506   4.05937
    R5        2.07011   0.01969   0.13220   0.00000   0.13217   2.20228
    R6        4.04307  -0.03073  -0.09826   0.00000  -0.09882   3.94425
    R7        4.43951  -0.01964  -0.03445   0.00000  -0.03392   4.40560
    R8        4.05362   0.01716   0.07506   0.00000   0.08097   4.13460
    R9        2.05429   0.00109   0.02061   0.00000   0.02061   2.07490
   R10        2.02113  -0.00146   0.00005   0.00000   0.00220   2.02333
   R11        2.05627   0.00122   0.02188   0.00000   0.02188   2.07815
   R12        2.05673  -0.00072   0.02217   0.00000   0.02217   2.07890
   R13        2.05199   0.00155   0.01914   0.00000   0.01914   2.07113
   R14        1.96634   0.00121  -0.03554   0.00000  -0.03554   1.93080
    A1        2.26543  -0.01433  -0.04773   0.00000  -0.04391   2.22151
    A2        2.40141  -0.01911  -0.03311   0.00000  -0.03123   2.37018
    A3        2.09239  -0.01840  -0.03059   0.00000  -0.02756   2.06483
    A4        1.86721   0.03419   0.08235   0.00000   0.07559   1.94279
    A5        2.17700  -0.00028  -0.01881   0.00000  -0.01728   2.15972
    A6        2.53394   0.00126   0.01149   0.00000   0.01260   2.54654
    A7        1.88070  -0.00367  -0.01564   0.00000  -0.01700   1.86370
    A8        2.33537  -0.02128  -0.04067   0.00000  -0.04356   2.29181
    A9        1.90218  -0.00562  -0.02456   0.00000  -0.02602   1.87616
   A10        1.84253   0.03313   0.10010   0.00000   0.09890   1.94143
   A11        1.96025  -0.02728  -0.08284   0.00000  -0.08202   1.87823
   A12        1.91886  -0.00196   0.00492   0.00000   0.00383   1.92269
   A13        1.94363   0.00982   0.02028   0.00000   0.01728   1.96090
   A14        1.89361  -0.00678  -0.01046   0.00000  -0.00891   1.88470
   A15        1.95547   0.00184   0.02608   0.00000   0.01667   1.97213
   A16        2.02846   0.01527   0.07356   0.00000   0.06650   2.09496
   A17        1.96157  -0.00275   0.03079   0.00000   0.02344   1.98502
   A18        1.24305  -0.09064  -0.16201   0.00000  -0.16141   1.08164
   A19        1.71192  -0.08274  -0.11498   0.00000  -0.11558   1.59634
    D1        3.13270  -0.00450  -0.02734   0.00000  -0.02573   3.10697
    D2        0.48718  -0.00698   0.00535   0.00000   0.00656   0.49374
    D3       -0.95518   0.01389   0.00906   0.00000   0.00871  -0.94646
    D4        2.68248   0.01141   0.04175   0.00000   0.04100   2.72348
    D5       -0.41848   0.00774   0.00520   0.00000   0.00455  -0.41393
    D6       -3.06400   0.00525   0.03789   0.00000   0.03683  -3.02717
    D7       -0.75893  -0.01088  -0.02154   0.00000  -0.02043  -0.77936
    D8        2.96142   0.01673   0.05684   0.00000   0.05450   3.01592
    D9       -0.66638   0.00299   0.04563   0.00000   0.04450  -0.62188
   D10        2.50250  -0.02233  -0.08488   0.00000  -0.08638   2.41612
   D11        2.62545  -0.02257  -0.11173   0.00000  -0.11561   2.50984
   D12       -1.49529  -0.00753   0.03881   0.00000   0.04269  -1.45260
   D13       -1.37234  -0.00778   0.01196   0.00000   0.01345  -1.35889
         Item               Value     Threshold  Converged?
 Maximum Force            0.113812     0.000450     NO 
 RMS     Force            0.029539     0.000300     NO 
 Maximum Displacement     0.707765     0.001800     NO 
 RMS     Displacement     0.219594     0.001200     NO 
 Predicted change in Energy=-8.403225D-02
 GradGradGradGradGradGradGradGradGradGradGradGradGradGradGradGradGradGrad

                          Input orientation:                          
 ---------------------------------------------------------------------
 Center     Atomic      Atomic             Coordinates (Angstroms)
 Number     Number       Type             X           Y           Z
 ---------------------------------------------------------------------
      1          6           0       -2.160335   -0.002070    0.398828
      2          6           0       -0.971319    0.147109    0.189004
      3          1           0       -0.532564    1.002343   -0.469945
      4          1           0       -2.648764   -0.818793    0.995695
      5          6           0       -3.637209    1.130652    1.094191
      6          1           0       -3.246421    1.654708    1.976367
      7          1           0       -3.450023    1.705468    0.210479
      8          1           0       -4.720273    0.951677    1.159773
      9          6           0        0.220339   -1.174494    0.668164
     10          1           0        0.094276   -2.262894    0.766781
     11          1           0        0.238916   -0.656396    1.633792
     12          1           0        0.879601   -0.795834   -0.014427
 ---------------------------------------------------------------------
                    Distance matrix (angstroms):
                    1          2          3          4          5
     1  C    0.000000
     2  C    1.216569   0.000000
     3  H    2.100774   1.165395   0.000000
     4  H    1.123320   2.097031   3.153243   0.000000
     5  C    1.986894   2.982229   3.478765   2.187935   0.000000
     6  H    2.532415   3.262455   3.711475   2.727108   1.097991
     7  H    2.148129   2.927954   3.077162   2.762331   1.070700
     8  H    2.835834   3.955297   4.493935   2.729951   1.099709
     9  C    2.667344   1.842899   2.569198   2.909562   4.513964
    10  H    3.214029   2.697671   3.547421   3.108392   5.054437
    11  H    2.776631   2.048829   2.787886   2.961796   4.302215
    12  H    3.168920   2.087207   2.331341   3.670182   5.034080
                    6          7          8          9         10
     6  H    0.000000
     7  H    1.778311   0.000000
     8  H    1.825737   1.755818   0.000000
     9  C    4.661996   4.687772   5.401104   0.000000
    10  H    5.288758   5.349712   5.802395   1.100105   0.000000
    11  H    4.195966   4.605702   5.234897   1.095996   1.831246
    12  H    5.195429   5.005271   5.982569   1.021734   1.838283
                   11         12
    11  H    0.000000
    12  H    1.773851   0.000000
 Stoichiometry    C4H8
 Framework group  C1[X(C4H8)]
 Deg. of freedom    30
 Full point group                 C1      NOp   1
 Largest Abelian subgroup         C1      NOp   1
 Largest concise Abelian subgroup C1      NOp   1
                         Standard orientation:                         
 ---------------------------------------------------------------------
 Center     Atomic      Atomic             Coordinates (Angstroms)
 Number     Number       Type             X           Y           Z
 ---------------------------------------------------------------------
      1          6           0       -0.399419   -0.054168   -0.400446
      2          6           0        0.584525    0.567727   -0.046692
      3          1           0        0.623868    1.730152    0.026569
      4          1           0       -0.493847   -1.166925   -0.521704
      5          6           0       -2.304652   -0.143015    0.156276
      6          1           0       -2.312932   -0.178912    1.253649
      7          1           0       -2.324387    0.873357   -0.179875
      8          1           0       -3.166606   -0.663641   -0.285700
      9          6           0        2.206685   -0.291604    0.115861
     10          1           0        2.611961   -1.177354   -0.395441
     11          1           0        1.868809   -0.503701    1.136676
     12          1           0        2.670295    0.613383    0.015831
 ---------------------------------------------------------------------
 Rotational constants (GHZ):          27.0990414           2.9188365           2.8046797
 Standard basis: 6-31G(d) (6D, 7F)
 There are    76 symmetry adapted cartesian basis functions of A   symmetry.
 There are    76 symmetry adapted basis functions of A   symmetry.
    76 basis functions,   144 primitive gaussians,    76 cartesian basis functions
    16 alpha electrons       16 beta electrons
       nuclear repulsion energy       107.2039205889 Hartrees.
 NAtoms=   12 NActive=   12 NUniq=   12 SFac= 1.00D+00 NAtFMM=   60 NAOKFM=F Big=F
 Integral buffers will be    131072 words long.
 Raffenetti 2 integral format.
 Two-electron integral symmetry is turned on.
 One-electron integrals computed using PRISM.
 NBasis=    76 RedAO= T EigKep=  3.26D-03  NBF=    76
 NBsUse=    76 1.00D-06 EigRej= -1.00D+00 NBFU=    76
 Initial guess from the checkpoint file:  "trans-2-butene_JETWEI.chk"
 B after Tr=     0.000000    0.000000    0.000000
         Rot=    0.999427    0.033527    0.004555    0.000572 Ang=   3.88 deg.
 ExpMin= 1.61D-01 ExpMax= 3.05D+03 ExpMxC= 4.57D+02 IAcc=2 IRadAn=         4 AccDes= 0.00D+00
 Harris functional with IExCor=  402 and IRadAn=       4 diagonalized for initial guess.
 HarFok:  IExCor=  402 AccDes= 0.00D+00 IRadAn=         4 IDoV= 1 UseB2=F ITyADJ=14
 ICtDFT=  3500011 ScaDFX=  1.000000  1.000000  1.000000  1.000000
 FoFCou: FMM=F IPFlag=           0 FMFlag=      100000 FMFlg1=           0
         NFxFlg=           0 DoJE=T BraDBF=F KetDBF=T FulRan=T
         wScrn=  0.000000 ICntrl=       500 IOpCl=  0 I1Cent=   200000004 NGrid=           0
         NMat0=    1 NMatS0=      1 NMatT0=    0 NMatD0=    1 NMtDS0=    0 NMtDT0=    0
 Petite list used in FoFCou.
 Keep R1 ints in memory in canonical form, NReq=7884897.
 Requested convergence on RMS density matrix=1.00D-08 within 128 cycles.
 Requested convergence on MAX density matrix=1.00D-06.
 Requested convergence on             energy=1.00D-06.
 No special actions if energy rises.
 Integral accuracy reduced to 1.0D-05 until final iterations.
 Initial convergence to 1.0D-05 achieved.  Increase integral accuracy.
 SCF Done:  E(RB3LYP) =  -157.025814643     A.U. after   15 cycles
            NFock= 15  Conv=0.25D-08     -V/T= 2.0104
 Calling FoFJK, ICntrl=      2127 FMM=F ISym2X=0 I1Cent= 0 IOpClX= 0 NMat=1 NMatS=1 NMatT=0.
 ***** Axes restored to original set *****
 -------------------------------------------------------------------
 Center     Atomic                   Forces (Hartrees/Bohr)
 Number     Number              X              Y              Z
 -------------------------------------------------------------------
      1        6          -0.237286346   -0.038151649    0.123381663
      2        6           0.166641809   -0.004136365   -0.067660822
      3        1          -0.003283685   -0.026879042    0.032925887
      4        1           0.029480792   -0.001990771   -0.022838518
      5        6           0.048645285    0.015881658   -0.043082236
      6        1           0.001900593   -0.008449806   -0.003703160
      7        1          -0.012121604    0.029589251   -0.003604602
      8        1           0.010863617   -0.023816812   -0.001699440
      9        6          -0.067707904    0.059709639    0.020989983
     10        1          -0.013912819    0.010588164   -0.011546491
     11        1           0.021142256   -0.013907544    0.002901624
     12        1           0.055638006    0.001563280   -0.026063887
 -------------------------------------------------------------------
 Cartesian Forces:  Max     0.237286346 RMS     0.059698874

 GradGradGradGradGradGradGradGradGradGradGradGradGradGradGradGradGradGrad
 Berny optimization.
 Using GEDIIS/GDIIS optimizer.
 FormGI is forming the generalized inverse of G from B-inverse, IUseBI=4.
 Internal  Forces:  Max     0.166587625 RMS     0.033976636
 Search for a local minimum.
 Step number   4 out of a maximum of   56
 All quantities printed in internal units (Hartrees-Bohrs-Radians)
 Mixed Optimization -- RFO/linear search
 Update second derivatives using D2CorX and points    3    4
 ITU=  0  0  1  0
 Use linear search instead of GDIIS.
     Eigenvalues ---    0.00230   0.00279   0.00431   0.00494   0.01073
     Eigenvalues ---    0.02369   0.02387   0.02724   0.04481   0.05299
     Eigenvalues ---    0.07158   0.09139   0.10138   0.14626   0.15096
     Eigenvalues ---    0.15887   0.15994   0.16000   0.16000   0.17876
     Eigenvalues ---    0.19381   0.33491   0.35581   0.37145   0.37230
     Eigenvalues ---    0.37230   0.37230   0.39856   0.52786   0.66307
 RFO step:  Lambda=-1.29431314D-01 EMin= 2.29822145D-03
 Quartic linear search produced a step of -0.15961.
 Maximum step size (   0.505) exceeded in Quadratic search.
    -- Step size scaled by   0.769
 Iteration  1 RMS(Cart)=  0.15712128 RMS(Int)=  0.01037945
 Iteration  2 RMS(Cart)=  0.01208173 RMS(Int)=  0.00119983
 Iteration  3 RMS(Cart)=  0.00010067 RMS(Int)=  0.00119667
 Iteration  4 RMS(Cart)=  0.00000004 RMS(Int)=  0.00119667
 Variable       Old X    -DE/DX   Delta X   Delta X   Delta X     New X
                                 (Linear)    (Quad)   (Total)
    R1        2.29898   0.16659   0.06736   0.09071   0.15807   2.45705
    R2        2.12277  -0.03621  -0.02147   0.01355  -0.00690   2.11586
    R3        3.75469  -0.05800   0.02094  -0.23232  -0.21158   3.54311
    R4        4.05937   0.01848  -0.00400   0.06430   0.06056   4.11993
    R5        2.20228  -0.01294  -0.02109   0.03220   0.01099   2.21327
    R6        3.94425  -0.01716   0.01577  -0.12990  -0.11399   3.83026
    R7        4.40560  -0.02404   0.00541  -0.11255  -0.10720   4.29839
    R8        4.13460   0.00804  -0.01292   0.07132   0.05751   4.19211
    R9        2.07490  -0.00633  -0.00329   0.00002  -0.00327   2.07163
   R10        2.02333  -0.00365  -0.00035  -0.00449  -0.00425   2.01908
   R11        2.07815  -0.00692  -0.00349  -0.00015  -0.00364   2.07451
   R12        2.07890  -0.00992  -0.00354  -0.00409  -0.00763   2.07127
   R13        2.07113  -0.00366  -0.00306   0.00254  -0.00052   2.07061
   R14        1.93080   0.02637   0.00567   0.01711   0.02278   1.95358
    A1        2.22151  -0.01086   0.00701  -0.04185  -0.03667   2.18484
    A2        2.37018  -0.02274   0.00498  -0.05846  -0.05604   2.31414
    A3        2.06483  -0.02054   0.00440  -0.05521  -0.04944   2.01540
    A4        1.94279   0.03442  -0.01206   0.12188   0.10845   2.05125
    A5        2.15972   0.00003   0.00276   0.00115   0.00332   2.16304
    A6        2.54654   0.00496  -0.00201   0.01828   0.01603   2.56257
    A7        1.86370  -0.00367   0.00271  -0.02684  -0.02603   1.83767
    A8        2.29181  -0.02319   0.00695  -0.06493  -0.06165   2.23016
    A9        1.87616  -0.00238   0.00415  -0.01511  -0.01137   1.86479
   A10        1.94143   0.02681  -0.01579   0.12907   0.11209   2.05352
   A11        1.87823  -0.02234   0.01309  -0.10290  -0.08784   1.79038
   A12        1.92269  -0.00301  -0.00061  -0.00334  -0.00418   1.91850
   A13        1.96090   0.00762  -0.00276   0.01290   0.00737   1.96827
   A14        1.88470  -0.00623   0.00142  -0.01886  -0.01704   1.86766
   A15        1.97213   0.00035  -0.00266   0.00483   0.00287   1.97501
   A16        2.09496   0.00579  -0.01061   0.03952   0.02944   2.12440
   A17        1.98502  -0.01121  -0.00374  -0.01766  -0.02085   1.96417
   A18        1.08164  -0.07257   0.02576  -0.22487  -0.19928   0.88236
   A19        1.59634  -0.07398   0.01845  -0.20575  -0.18708   1.40926
    D1        3.10697  -0.00317   0.00411  -0.02669  -0.02336   3.08362
    D2        0.49374  -0.01514  -0.00105  -0.07073  -0.07195   0.42179
    D3       -0.94646   0.02309  -0.00139   0.10505   0.10470  -0.84176
    D4        2.72348   0.01111  -0.00654   0.06101   0.05611   2.77960
    D5       -0.41393   0.01395  -0.00073   0.08213   0.08022  -0.33371
    D6       -3.02717   0.00197  -0.00588   0.03809   0.03163  -2.99553
    D7       -0.77936  -0.01250   0.00326  -0.05285  -0.04801  -0.82736
    D8        3.01592   0.01624  -0.00870   0.07592   0.06584   3.08176
    D9       -0.62188  -0.00788  -0.00710  -0.01867  -0.02458  -0.64645
   D10        2.41612  -0.02049   0.01379  -0.14391  -0.13112   2.28500
   D11        2.50984  -0.01218   0.01845  -0.11420  -0.09436   2.41548
   D12       -1.45260  -0.02757  -0.00681  -0.10774  -0.11594  -1.56855
   D13       -1.35889  -0.01926  -0.00215  -0.07803  -0.07918  -1.43807
         Item               Value     Threshold  Converged?
 Maximum Force            0.166588     0.000450     NO 
 RMS     Force            0.033977     0.000300     NO 
 Maximum Displacement     0.648604     0.001800     NO 
 RMS     Displacement     0.158703     0.001200     NO 
 Predicted change in Energy=-8.223552D-02
 GradGradGradGradGradGradGradGradGradGradGradGradGradGradGradGradGradGrad

                          Input orientation:                          
 ---------------------------------------------------------------------
 Center     Atomic      Atomic             Coordinates (Angstroms)
 Number     Number       Type             X           Y           Z
 ---------------------------------------------------------------------
      1          6           0       -2.189397   -0.078142    0.447857
      2          6           0       -0.919991    0.087522    0.220425
      3          1           0       -0.477118    0.979911   -0.395400
      4          1           0       -2.639736   -0.949591    0.987694
      5          6           0       -3.530883    1.080678    1.058529
      6          1           0       -3.101145    1.585953    1.931347
      7          1           0       -3.427372    1.698237    0.192792
      8          1           0       -4.601530    0.867952    1.175088
      9          6           0        0.119483   -1.032602    0.643858
     10          1           0       -0.248951   -2.060235    0.741777
     11          1           0        0.189569   -0.506738    1.602586
     12          1           0        0.893293   -0.791469    0.002147
 ---------------------------------------------------------------------
                    Distance matrix (angstroms):
                    1          2          3          4          5
     1  C    0.000000
     2  C    1.300216   0.000000
     3  H    2.182305   1.171211   0.000000
     4  H    1.119667   2.149844   3.211362   0.000000
     5  C    1.874931   2.916425   3.383717   2.218368   0.000000
     6  H    2.408576   3.151188   3.559011   2.744515   1.096261
     7  H    2.180175   2.980290   3.092888   2.874584   1.068453
     8  H    2.691161   3.882549   4.414719   2.680899   1.097782
     9  C    2.506060   1.585711   2.342264   2.781799   4.238287
    10  H    2.789339   2.309754   3.253878   2.647614   4.553762
    11  H    2.678913   1.869395   2.578090   2.929024   4.081379
    12  H    3.195383   2.026886   2.274612   3.671322   4.918761
                    6          7          8          9         10
     6  H    0.000000
     7  H    1.772457   0.000000
     8  H    1.827186   1.741530   0.000000
     9  C    4.345907   4.499014   5.116863   0.000000
    10  H    4.779621   4.952763   5.263743   1.096067   0.000000
    11  H    3.913597   4.464493   5.002716   1.095722   1.829384
    12  H    5.032841   4.990303   5.858546   1.033789   1.860522
                   11         12
    11  H    0.000000
    12  H    1.771357   0.000000
 Stoichiometry    C4H8
 Framework group  C1[X(C4H8)]
 Deg. of freedom    30
 Full point group                 C1      NOp   1
 Largest Abelian subgroup         C1      NOp   1
 Largest concise Abelian subgroup C1      NOp   1
                         Standard orientation:                         
 ---------------------------------------------------------------------
 Center     Atomic      Atomic             Coordinates (Angstroms)
 Number     Number       Type             X           Y           Z
 ---------------------------------------------------------------------
      1          6           0       -0.406309   -0.195454   -0.382650
      2          6           0        0.659908    0.499880   -0.117595
      3          1           0        0.708908    1.668715   -0.173790
      4          1           0       -0.462708   -1.313691   -0.386899
      5          6           0       -2.192042   -0.039455    0.167069
      6          1           0       -2.148945    0.099712    1.253607
      7          1           0       -2.285503    0.907995   -0.317900
      8          1           0       -3.048856   -0.648260   -0.149713
      9          6           0        2.041951   -0.229562    0.151391
     10          1           0        2.181078   -1.231464   -0.270744
     11          1           0        1.749288   -0.243612    1.207211
     12          1           0        2.685685    0.548154   -0.071058
 ---------------------------------------------------------------------
 Rotational constants (GHZ):          28.4600758           3.2396538           3.1222411
 Standard basis: 6-31G(d) (6D, 7F)
 There are    76 symmetry adapted cartesian basis functions of A   symmetry.
 There are    76 symmetry adapted basis functions of A   symmetry.
    76 basis functions,   144 primitive gaussians,    76 cartesian basis functions
    16 alpha electrons       16 beta electrons
       nuclear repulsion energy       110.4523715307 Hartrees.
 NAtoms=   12 NActive=   12 NUniq=   12 SFac= 1.00D+00 NAtFMM=   60 NAOKFM=F Big=F
 Integral buffers will be    131072 words long.
 Raffenetti 2 integral format.
 Two-electron integral symmetry is turned on.
 One-electron integrals computed using PRISM.
 NBasis=    76 RedAO= T EigKep=  4.05D-03  NBF=    76
 NBsUse=    76 1.00D-06 EigRej= -1.00D+00 NBFU=    76
 Initial guess from the checkpoint file:  "trans-2-butene_JETWEI.chk"
 B after Tr=    -0.000000   -0.000000   -0.000000
         Rot=    0.996215    0.086335   -0.001073    0.010009 Ang=   9.97 deg.
 ExpMin= 1.61D-01 ExpMax= 3.05D+03 ExpMxC= 4.57D+02 IAcc=2 IRadAn=         4 AccDes= 0.00D+00
 Harris functional with IExCor=  402 and IRadAn=       4 diagonalized for initial guess.
 HarFok:  IExCor=  402 AccDes= 0.00D+00 IRadAn=         4 IDoV= 1 UseB2=F ITyADJ=14
 ICtDFT=  3500011 ScaDFX=  1.000000  1.000000  1.000000  1.000000
 FoFCou: FMM=F IPFlag=           0 FMFlag=      100000 FMFlg1=           0
         NFxFlg=           0 DoJE=T BraDBF=F KetDBF=T FulRan=T
         wScrn=  0.000000 ICntrl=       500 IOpCl=  0 I1Cent=   200000004 NGrid=           0
         NMat0=    1 NMatS0=      1 NMatT0=    0 NMatD0=    1 NMtDS0=    0 NMtDT0=    0
 Petite list used in FoFCou.
 Keep R1 ints in memory in canonical form, NReq=7884897.
 Requested convergence on RMS density matrix=1.00D-08 within 128 cycles.
 Requested convergence on MAX density matrix=1.00D-06.
 Requested convergence on             energy=1.00D-06.
 No special actions if energy rises.
 Integral accuracy reduced to 1.0D-05 until final iterations.
 Initial convergence to 1.0D-05 achieved.  Increase integral accuracy.
 SCF Done:  E(RB3LYP) =  -157.110185076     A.U. after   13 cycles
            NFock= 13  Conv=0.45D-08     -V/T= 2.0115
 Calling FoFJK, ICntrl=      2127 FMM=F ISym2X=0 I1Cent= 0 IOpClX= 0 NMat=1 NMatS=1 NMatT=0.
 ***** Axes restored to original set *****
 -------------------------------------------------------------------
 Center     Atomic                   Forces (Hartrees/Bohr)
 Number     Number              X              Y              Z
 -------------------------------------------------------------------
      1        6          -0.117906199    0.003006015    0.083072474
      2        6           0.030773763    0.002327665   -0.047757723
      3        1          -0.014674263   -0.026323642    0.032441231
      4        1           0.027362410   -0.001496993   -0.016046482
      5        6           0.059218868   -0.004111916   -0.044201385
      6        1          -0.001838638   -0.005140977   -0.002025037
      7        1          -0.008691915    0.027788560   -0.005813717
      8        1           0.010195818   -0.021689193   -0.000349247
      9        6          -0.060698580    0.051975574    0.013556001
     10        1           0.002723120    0.006151279   -0.005276166
     11        1           0.026222563   -0.020712141    0.010883777
     12        1           0.047313053   -0.011774232   -0.018483727
 -------------------------------------------------------------------
 Cartesian Forces:  Max     0.117906199 RMS     0.035189305

 GradGradGradGradGradGradGradGradGradGradGradGradGradGradGradGradGradGrad
 Berny optimization.
 Using GEDIIS/GDIIS optimizer.
 FormGI is forming the generalized inverse of G from B-inverse, IUseBI=4.
 Internal  Forces:  Max     0.064383796 RMS     0.019713175
 Search for a local minimum.
 Step number   5 out of a maximum of   56
 All quantities printed in internal units (Hartrees-Bohrs-Radians)
 Mixed Optimization -- RFO/linear search
 Update second derivatives using D2CorX and points    4    5
 DE= -8.44D-02 DEPred=-8.22D-02 R= 1.03D+00
 TightC=F SS=  1.41D+00  RLast= 5.50D-01 DXNew= 8.4853D-01 1.6501D+00
 Trust test= 1.03D+00 RLast= 5.50D-01 DXMaxT set to 8.49D-01
 ITU=  1  0  0  1  0
 Use linear search instead of GDIIS.
     Eigenvalues ---    0.00228   0.00273   0.00445   0.00498   0.00965
     Eigenvalues ---    0.02007   0.02442   0.02832   0.04328   0.05125
     Eigenvalues ---    0.07084   0.09016   0.10286   0.14795   0.15382
     Eigenvalues ---    0.15852   0.15996   0.16000   0.16040   0.19288
     Eigenvalues ---    0.24062   0.30711   0.33187   0.37224   0.37228
     Eigenvalues ---    0.37230   0.37290   0.38819   0.52272   0.78049
 RFO step:  Lambda=-7.36210901D-02 EMin= 2.28351199D-03
 Quartic linear search produced a step of  0.62708.
 Iteration  1 RMS(Cart)=  0.13082691 RMS(Int)=  0.05388870
 Iteration  2 RMS(Cart)=  0.05878497 RMS(Int)=  0.01080490
 Iteration  3 RMS(Cart)=  0.00538504 RMS(Int)=  0.00988060
 Iteration  4 RMS(Cart)=  0.00008896 RMS(Int)=  0.00988046
 Iteration  5 RMS(Cart)=  0.00000384 RMS(Int)=  0.00988046
 Iteration  6 RMS(Cart)=  0.00000018 RMS(Int)=  0.00988046
 Variable       Old X    -DE/DX   Delta X   Delta X   Delta X     New X
                                 (Linear)    (Quad)   (Total)
    R1        2.45705   0.03368   0.09912   0.00688   0.10600   2.56305
    R2        2.11586  -0.02825  -0.00433  -0.05633  -0.05224   2.06362
    R3        3.54311  -0.06438  -0.13268  -0.35732  -0.48425   3.05885
    R4        4.11993   0.01364   0.03797   0.02855   0.06361   4.18354
    R5        2.21327  -0.03157   0.00689  -0.07240  -0.06511   2.14816
    R6        3.83026   0.00705  -0.07148   0.20197   0.13085   3.96111
    R7        4.29839  -0.00956  -0.06722   0.06929   0.00155   4.29994
    R8        4.19211   0.00385   0.03606  -0.00271   0.02530   4.21741
    R9        2.07163  -0.00470  -0.00205  -0.01227  -0.01432   2.05731
   R10        2.01908   0.00098  -0.00266   0.00686   0.00971   2.02879
   R11        2.07451  -0.00578  -0.00228  -0.01523  -0.01752   2.05699
   R12        2.07127  -0.00715  -0.00479  -0.01851  -0.02329   2.04797
   R13        2.07061   0.00126  -0.00033   0.00429   0.00397   2.07458
   R14        1.95358   0.02694   0.01428   0.07120   0.08548   2.03906
    A1        2.18484  -0.01714  -0.02300  -0.07798  -0.11226   2.07259
    A2        2.31414  -0.02048  -0.03514  -0.07471  -0.12580   2.18834
    A3        2.01540  -0.01662  -0.03100  -0.06097  -0.08370   1.93170
    A4        2.05125   0.03657   0.06801   0.16164   0.22299   2.27423
    A5        2.16304  -0.00680   0.00208  -0.01726  -0.01635   2.14669
    A6        2.56257   0.01015   0.01005   0.06952   0.07883   2.64141
    A7        1.83767   0.00002  -0.01632  -0.00505  -0.02942   1.80825
    A8        2.23016  -0.02501  -0.03866  -0.09468  -0.15216   2.07800
    A9        1.86479  -0.00088  -0.00713   0.00262  -0.00713   1.85766
   A10        2.05352   0.02869   0.07029   0.15411   0.21747   2.27099
   A11        1.79038  -0.02148  -0.05508  -0.10907  -0.15246   1.63792
   A12        1.91850  -0.00250  -0.00262  -0.00982  -0.01816   1.90034
   A13        1.96827   0.00291   0.00462  -0.00451  -0.01222   1.95605
   A14        1.86766  -0.00743  -0.01069  -0.03888  -0.05151   1.81615
   A15        1.97501   0.00165   0.00180  -0.04856  -0.08197   1.89304
   A16        2.12440  -0.00603   0.01846  -0.08745  -0.08439   2.04001
   A17        1.96417  -0.01780  -0.01307  -0.13165  -0.16469   1.79948
   A18        0.88236  -0.01891  -0.12497  -0.02338  -0.14616   0.73620
   A19        1.40926  -0.02766  -0.11731  -0.06938  -0.18868   1.22059
    D1        3.08362  -0.00305  -0.01465  -0.02068  -0.03766   3.04596
    D2        0.42179  -0.01356  -0.04512  -0.07543  -0.12197   0.29982
    D3       -0.84176   0.02131   0.06566   0.12142   0.19494  -0.64682
    D4        2.77960   0.01081   0.03519   0.06667   0.11063   2.89023
    D5       -0.33371   0.01466   0.05031   0.10158   0.14498  -0.18873
    D6       -2.99553   0.00416   0.01984   0.04682   0.06067  -2.93486
    D7       -0.82736  -0.00995  -0.03010  -0.04444  -0.06910  -0.89646
    D8        3.08176   0.01490   0.04129   0.08380   0.11935  -3.08208
    D9       -0.64645  -0.01159  -0.01541  -0.12287  -0.13647  -0.78292
   D10        2.28500  -0.00636  -0.08222   0.06808  -0.02977   2.25523
   D11        2.41548   0.00183  -0.05917   0.14460   0.07281   2.48829
   D12       -1.56855  -0.03696  -0.07271  -0.32496  -0.38504  -1.95359
   D13       -1.43807  -0.02877  -0.04965  -0.24843  -0.28246  -1.72053
         Item               Value     Threshold  Converged?
 Maximum Force            0.064384     0.000450     NO 
 RMS     Force            0.019713     0.000300     NO 
 Maximum Displacement     0.433210     0.001800     NO 
 RMS     Displacement     0.172341     0.001200     NO 
 Predicted change in Energy=-1.025290D-01
[...]
   A17        1.85889   0.00003   0.00000   0.00018   0.00018   1.85907
   A18        0.70451  -0.00009   0.00000   0.00005   0.00005   0.70455
   A19        1.01793  -0.00007   0.00000   0.00014   0.00014   1.01807
    D1       -3.14153  -0.00001   0.00000  -0.00006  -0.00006  -3.14159
    D2        0.61295   0.00000   0.00000  -0.00004  -0.00004   0.61290
    D3        0.00020  -0.00001   0.00000  -0.00020  -0.00020  -0.00000
    D4       -2.52851  -0.00000   0.00000  -0.00018  -0.00018  -2.52869
    D5       -0.00002  -0.00000   0.00000   0.00002   0.00002   0.00000
    D6       -2.52873   0.00001   0.00000   0.00004   0.00004  -2.52869
    D7       -2.10596   0.00000   0.00000   0.00049   0.00049  -2.10547
    D8        2.10511   0.00000   0.00000   0.00035   0.00035   2.10547
    D9       -1.43968   0.00003   0.00000   0.00020   0.00020  -1.43948
   D10        2.14199  -0.00002   0.00000  -0.00018  -0.00018   2.14181
   D11        2.53635  -0.00001   0.00000  -0.00021  -0.00021   2.53613
   D12       -2.12221   0.00001   0.00000   0.00004   0.00004  -2.12217
   D13       -1.72786   0.00002   0.00000   0.00001   0.00001  -1.72785
         Item               Value     Threshold  Converged?
 Maximum Force            0.000088     0.000450     YES
 RMS     Force            0.000024     0.000300     YES
 Maximum Displacement     0.000871     0.001800     YES
 RMS     Displacement     0.000350     0.001200     YES
 Predicted change in Energy=-5.239870D-08
 Optimization completed.
    -- Stationary point found.
                           ----------------------------
                           !   Optimized Parameters   !
                           ! (Angstroms and Degrees)  !
 --------------------------                            --------------------------
 ! Name  Definition              Value          Derivative Info.                !
 --------------------------------------------------------------------------------
 ! R1    R(1,2)                  1.3354         -DE/DX =    0.0                 !
 ! R2    R(1,4)                  1.0921         -DE/DX =    0.0                 !
 ! R3    R(1,5)                  1.5024         -DE/DX =    0.0                 !
 ! R4    R(1,7)                  2.16           -DE/DX =    0.0                 !
 ! R5    R(2,3)                  1.0921         -DE/DX =    0.0                 !
 ! R6    R(2,12)                 2.1604         -DE/DX =   -0.0001              !
 ! R7    R(3,12)                 2.5816         -DE/DX =    0.0                 !
 ! R8    R(4,5)                  2.2115         -DE/DX =    0.0                 !
 ! R9    R(5,6)                  1.0987         -DE/DX =    0.0                 !
 ! R10   R(5,7)                  1.0955         -DE/DX =    0.0                 !
 ! R11   R(5,8)                  1.0987         -DE/DX =    0.0                 !
 ! R12   R(9,10)                 1.0955         -DE/DX =    0.0                 !
 ! R13   R(9,11)                 1.0987         -DE/DX =    0.0                 !
 ! R14   R(9,12)                 1.0987         -DE/DX =    0.0                 !
 ! A1    A(2,1,4)              118.6518         -DE/DX =    0.0                 !
 ! A2    A(2,1,5)              125.2955         -DE/DX =    0.0                 !
 ! A3    A(2,1,7)               97.1453         -DE/DX =    0.0                 !
 ! A4    A(4,1,7)              144.2029         -DE/DX =    0.0                 !
 ! A5    A(1,2,3)              118.6366         -DE/DX =    0.0                 !
 ! A6    A(1,2,12)             134.8836         -DE/DX =    0.0                 !
 ! A7    A(1,5,6)              111.3558         -DE/DX =    0.0                 !
 ! A8    A(1,5,8)              111.3523         -DE/DX =    0.0                 !
 ! A9    A(4,5,6)               96.644          -DE/DX =    0.0                 !
 ! A10   A(4,5,7)              137.8706         -DE/DX =    0.0                 !
 ! A11   A(4,5,8)               96.6524         -DE/DX =    0.0                 !
 ! A12   A(6,5,7)              107.9262         -DE/DX =    0.0                 !
 ! A13   A(6,5,8)              106.5153         -DE/DX =    0.0                 !
 ! A14   A(7,5,8)              107.9322         -DE/DX =    0.0                 !
 ! A15   A(10,9,11)            107.9301         -DE/DX =    0.0                 !
 ! A16   A(10,9,12)            107.9257         -DE/DX =    0.0                 !
 ! A17   A(11,9,12)            106.5065         -DE/DX =    0.0                 !
 ! A18   A(2,12,9)              40.3653         -DE/DX =   -0.0001              !
 ! A19   A(3,12,9)              58.3231         -DE/DX =   -0.0001              !
 ! D1    D(4,1,2,3)           -179.9964         -DE/DX =    0.0                 !
 ! D2    D(4,1,2,12)            35.1192         -DE/DX =    0.0                 !
 ! D3    D(5,1,2,3)              0.0116         -DE/DX =    0.0                 !
 ! D4    D(5,1,2,12)          -144.8727         -DE/DX =    0.0                 !
 ! D5    D(7,1,2,3)             -0.0011         -DE/DX =    0.0                 !
 ! D6    D(7,1,2,12)          -144.8855         -DE/DX =    0.0                 !
 ! D7    D(2,1,5,6)           -120.6624         -DE/DX =    0.0                 !
 ! D8    D(2,1,5,8)            120.6141         -DE/DX =    0.0                 !
 ! D9    D(1,2,12,9)           -82.4874         -DE/DX =    0.0                 !
 ! D10   D(10,9,12,2)          122.727          -DE/DX =    0.0                 !
 ! D11   D(10,9,12,3)          145.3219         -DE/DX =    0.0                 !
 ! D12   D(11,9,12,2)         -121.5937         -DE/DX =    0.0                 !
 ! D13   D(11,9,12,3)          -98.9988         -DE/DX =    0.0                 !
 --------------------------------------------------------------------------------
 GradGradGradGradGradGradGradGradGradGradGradGradGradGradGradGradGradGrad


 ----------------------------------------------------------------------

 Electric dipole moment (input orientation):
 (Debye = 10**-18 statcoulomb cm , SI units = C m)
                  (au)            (Debye)         (10**-30 SI)
   Tot        0.126872D-03      0.322477D-03      0.107567D-02
   x         -0.120522D-03     -0.306336D-03     -0.102183D-02
   y         -0.379793D-04     -0.965339D-04     -0.322002D-03
   z         -0.113442D-04     -0.288340D-04     -0.961799D-04

 Dipole polarizability, Alpha (input orientation).
 (esu units = cm**3 , SI units = C**2 m**2 J**-1)
 Alpha(0;0):
               (au)            (10**-24 esu)      (10**-40 SI)
   iso        0.435203D+02      0.644904D+01      0.717553D+01
   aniso      0.282771D+02      0.419024D+01      0.466227D+01
   xx         0.582622D+02      0.863357D+01      0.960614D+01
   yx        -0.610863D+01     -0.905205D+00     -0.100718D+01
   yy         0.401012D+02      0.594238D+01      0.661179D+01
   zx        -0.672411D+01     -0.996410D+00     -0.110866D+01
   zy        -0.232230D+01     -0.344129D+00     -0.382895D+00
   zz         0.321975D+02      0.477117D+01      0.530865D+01

 ----------------------------------------------------------------------

 Dipole orientation:
     6          1.64038427          1.89671819          3.94312074
     6          0.79195694          1.12623088          1.69477135
     1         -0.58595438          2.29929855          0.70257986
     1          3.01837298          0.72407997          4.93566130
     6          0.85419326          4.28429667          5.26279949
     1          2.48206712          5.52322354          5.61770171
     1         -0.52631032          5.34990735          4.14723069
     1          0.00518372          3.88044326          7.11397536
     6          1.57823666         -1.26183713          0.37567459
     1          2.95941895         -2.32644138          1.49133398
     1          2.42650907         -0.85891925         -1.47608914
     1         -0.04935635         -2.50155151          0.02181174

 Electric dipole moment (dipole orientation):
 (Debye = 10**-18 statcoulomb cm , SI units = C m)
                  (au)            (Debye)         (10**-30 SI)
   Tot        0.126872D-03      0.322477D-03      0.107567D-02
   x          0.000000D+00      0.000000D+00      0.000000D+00
   y          0.000000D+00      0.000000D+00      0.000000D+00
   z          0.126872D-03      0.322477D-03      0.107567D-02

 Dipole polarizability, Alpha (dipole orientation).
 (esu units = cm**3 , SI units = C**2 m**2 J**-1)
 Alpha(0;0):
               (au)            (10**-24 esu)      (10**-40 SI)
   iso        0.435203D+02      0.644904D+01      0.717553D+01
   aniso      0.282771D+02      0.419024D+01      0.466227D+01
   xx         0.342676D+02      0.507794D+01      0.564997D+01
   yx        -0.273907D+01     -0.405888D+00     -0.451611D+00
   yy         0.446076D+02      0.661016D+01      0.735480D+01
   zx         0.538915D+01      0.798590D+00      0.888551D+00
   zy         0.123796D+02      0.183446D+01      0.204111D+01
   zz         0.516856D+02      0.765902D+01      0.852181D+01

 ----------------------------------------------------------------------
 1\1\GINC-TITAN\Freq\RB3LYP\6-31G(d)\C4H8\SHARP\12-Mar-2024\0\\#N Geom=
 AllCheck Guess=TCheck SCRF=Check GenChk RB3LYP/6-31G(d) Freq\\trans-2-
 butene_JETWEI\\0,1\C,-2.2877990435,0.009212961,0.9384891634\C,-1.03428
 96656,0.1379813537,0.4963241911\H,-0.7359428496,1.0825345298,0.0364351
 576\H,-2.5863919315,-0.9352034098,1.3984686106\C,-3.349492717,1.069201
 9126,0.8590534085\H,-3.7248894074,1.3350580197,1.856832965\H,-2.971379
 8643,1.9824598228,0.3866767624\H,-4.2173605403,0.7235834474,0.28070145
 37\C,0.0271927762,-0.9223480117,0.5756994522\H,-0.3511287068,-1.835252
 2607,1.0485724255\H,0.8955072023,-0.5769609495,1.1535604791\H,0.402198
 4577,-1.1887908953,-0.4221128491\\Version=ES64L-G16RevA.03\State=1-A\H
 F=-157.2269103\RMSD=2.053e-09\RMSF=2.093e-05\ZeroPoint=0.1084909\Therm
 al=0.1139571\Dipole=-0.0001205,-0.000038,-0.0000113\DipoleDeriv=0.0908
 858,-0.023468,-0.0799799,-0.083738,0.1171745,-0.0946155,-0.0564481,-0.
 1134653,-0.1322911,0.090567,-0.0234746,-0.0799509,-0.0838096,0.117252,
 -0.0945553,-0.0565865,-0.1134454,-0.1322965,0.008302,0.0034998,0.02889
 38,-0.0103432,-0.1268627,0.0932185,0.0342725,0.088883,0.0597873,0.0082
 819,0.0034272,0.0289164,-0.0103738,-0.1268564,0.0932338,0.0342463,0.08
 89129,0.0597434,0.0387498,0.0504021,0.0213379,-0.0002372,0.0788718,0.0
 352972,0.0408399,0.0194943,0.1492351,-0.0134448,0.0523554,0.063703,0.0
 990524,0.0200002,-0.0414837,0.084535,-0.0586462,-0.1180141,0.011148,-0
 .0745902,0.0455779,-0.0031701,-0.0974241,0.0637637,0.0178867,0.0860924
 ,0.0254282,-0.1355518,-0.0081128,-0.0795614,-0.0014992,0.0082027,-0.05
 62058,-0.1210641,-0.0223738,0.0158978,0.0390363,0.0502624,0.0213439,-0
 .0002965,0.078783,0.0353434,0.0410339,0.0195076,0.1492159,0.0111253,-0
 .0745763,0.0456357,-0.0031951,-0.097296,0.06379,0.0179073,0.0861281,0.
 0253583,-0.1356885,-0.0081156,-0.0795674,-0.0015192,0.0082232,-0.05615
 44,-0.1210602,-0.0223395,0.0159803,-0.0134112,0.0523905,0.0636511,0.09
 91295,0.0199319,-0.0416319,0.0844373,-0.0587481,-0.1180446\Polar=58.26
 22053,-6.1086265,40.1011859,-6.7241108,-2.3222976,32.1974711\Quadrupol
 e=0.6580911,0.1454965,-0.8035876,-0.0925863,-0.5308897,-0.4752895\PG=C
 01 [X(C4H8)]\NImag=0\\0.77825779,0.00725103,0.54144718,-0.20108897,-0.
 15637347,0.26805333,-0.49537899,-0.04051366,0.15502276,0.77810162,-0.0
 4051186,-0.11060789,0.03614909,0.00727493,0.54145247,0.15502791,0.0361
 4577,-0.11266358,-0.20107357,-0.15635071,0.26802220,-0.00659059,-0.027
 64981,0.01464988,-0.07535712,-0.05833651,0.03379976,0.07911218,-0.0001
 6639,-0.00262853,0.00337534,-0.06162851,-0.25343185,0.10223057,0.06450
 900,0.27002088,0.00398639,0.01197455,0.00004082,0.03507450,0.10119873,
 -0.08992860,-0.04183085,-0.11510361,0.08318031,-0.07538644,-0.05839090
 ,0.03382981,-0.00658852,-0.02764376,0.01464611,-0.00420381,0.00061993,
 0.00461228,0.07914257,-0.06166788,-0.25339309,0.10224020,-0.00016401,-
 0.00262262,0.00337211,0.00061943,0.00221072,0.00333739,0.06454023,0.26
 999844,0.03510173,0.10121386,-0.08995821,0.00398023,0.01197013,0.00004
 295,0.00461217,0.00333575,0.00856900,-0.04185512,-0.11512069,0.0832019
 0,-0.15089113,0.06665482,-0.00106101,-0.02629273,0.02392011,0.00025683
 ,0.00080047,0.00063382,-0.00284849,0.00786075,-0.00731976,0.00097827,0
 .52892810,0.07080427,-0.16093488,0.01254866,0.00345917,0.00488487,-0.0
 0133970,-0.00289812,0.00012829,-0.00206149,0.02007004,-0.01644814,0.00
 084516,0.03888089,0.54064118,-0.00267562,0.01384557,-0.07609846,0.0082
 0471,-0.00774293,0.00465807,-0.00147850,-0.00316614,-0.00582893,-0.009
 65240,0.00940952,0.00126675,-0.01273473,-0.01376613,0.54573877,-0.0129
 8150,0.00603062,0.02294329,0.00005883,0.00343796,-0.00049919,0.0004079
 0,0.00046186,0.00105132,0.00063566,-0.00019940,-0.00074177,-0.07293904
 ,0.01850599,0.07941164,0.08141402,0.00983806,-0.00454378,-0.02227593,-
 0.00017304,-0.00241709,0.00061691,0.00006199,0.00005237,-0.00037106,-0
 .00056469,0.00047775,0.00061177,0.01930381,-0.06396898,-0.05486185,-0.
 02467827,0.06482566,0.00070179,0.00032663,0.00614313,-0.00116141,-0.00
 040896,0.00041866,-0.00018902,-0.00014268,-0.00009070,0.00052541,-0.00
 057404,0.00029537,0.07740326,-0.05249219,-0.26205071,-0.08586813,0.060
 29226,0.28461054,0.00991671,0.02108661,-0.01151716,0.00164421,0.000945
 85,-0.00103117,-0.00013990,-0.00063789,0.00036015,-0.00306021,0.003597
 70,0.00013121,-0.08383109,-0.07914246,0.04126222,-0.00452756,-0.008510
 78,0.00320899,0.08868405,-0.00884012,-0.02131309,0.01073633,-0.0023723
 7,0.00138705,0.00001942,0.00119832,0.00071095,-0.00056594,0.00382896,-
 0.00187384,0.00023705,-0.07712264,-0.23003187,0.09391992,0.00314843,0.
 00815555,-0.00312913,0.08320568,0.25072044,0.00009121,0.00138633,-0.00
 132892,0.00025751,-0.00101966,-0.00016275,-0.00035201,0.00000910,0.000
 32753,0.00004075,0.00031144,0.00169139,0.04047904,0.09454933,-0.099344
 67,0.01050634,0.02584537,-0.01174216,-0.04528418,-0.10500077,0.1019295
 7,-0.02259473,-0.00583007,-0.00940513,0.00024519,0.00304708,-0.0021027
 1,-0.00023174,-0.00036559,-0.00109897,0.00076368,0.00050065,0.00032873
 ,-0.20288822,-0.06841728,-0.10750248,0.00955781,0.00335069,0.00543599,
 -0.00856090,-0.00330625,-0.00560718,0.22408709,0.02160288,0.01013552,0
 .01338139,0.00077069,-0.00200502,0.00092437,0.00027957,0.00027979,0.00
 019214,-0.00110122,0.00048074,-0.00028730,-0.06549709,-0.07684858,-0.0
 4197590,-0.00612623,-0.00310798,-0.00373803,-0.02030022,-0.00827947,-0
 .01586754,0.07001812,0.08003831,0.00071468,0.00054420,0.00107187,0.000
 84405,0.00010873,-0.00017450,0.00004694,0.00004020,0.00032035,-0.00017
 457,0.00028412,0.00016206,-0.10693407,-0.04318748,-0.11923627,-0.02487
 358,-0.01103812,-0.01736811,0.01280578,0.00415415,0.00872971,0.1177650
 7,0.04928509,0.12673884,-0.02629675,0.02392947,0.00026041,-0.15080028,
 0.06657981,-0.00104772,0.00786437,-0.00732395,0.00097362,0.00080050,0.
 00063352,-0.00284914,0.00068428,-0.00089834,0.00482113,-0.00134748,0.0
 0109540,-0.00007321,-0.00008479,0.00033821,-0.00016576,0.00000071,0.00
 001186,-0.00011875,0.52893773,0.00346917,0.00487893,-0.00134227,0.0707
 4582,-0.16090534,0.01253686,0.02005278,-0.01642579,0.00083552,-0.00289
 854,0.00012575,-0.00206135,-0.00090067,0.00139227,0.00555303,-0.001013
 56,0.00112671,-0.00009085,0.00004913,0.00034737,-0.00022570,0.00060127
 ,-0.00028891,-0.00033178,0.03893093,0.54050260,0.00820075,-0.00774390,
 0.00465660,-0.00266687,0.01384443,-0.07610021,-0.00965162,0.00940241,0
 .00126502,-0.00147780,-0.00316601,-0.00582857,0.00481849,0.00555370,0.
 01131192,-0.00198761,0.00123949,-0.00021420,-0.00005381,-0.00031598,-0
 .00005623,0.00238743,-0.00213870,-0.00014642,-0.01275304,-0.01379680,0
 .54565600,0.00164190,0.00094867,-0.00103109,0.00991096,0.02107323,-0.0
 1152299,-0.00305875,0.00359504,0.00013251,-0.00014019,-0.00063676,0.00
 036027,-0.00008462,0.00004892,-0.00005364,0.00002482,-0.00005609,0.000
 01480,-0.00006993,-0.00021968,0.00010229,0.00000459,-0.00001764,0.0000
 0061,-0.08386376,-0.07916301,0.04132910,0.08872795,-0.00237402,0.00138
 548,0.00001858,-0.00884186,-0.02131751,0.01074823,0.00382878,-0.001873
 73,0.00023768,0.00119831,0.00071185,-0.00056488,0.00033801,0.00034743,
 -0.00031667,0.00007452,-0.00008461,-0.00002479,-0.00021972,0.00027662,
 -0.00004457,0.00006683,-0.00001509,0.00001429,-0.07714242,-0.22990429,
 0.09399358,0.08322221,0.25057995,0.00025777,-0.00102011,-0.00016217,0.
 00009350,0.00138202,-0.00132679,0.00004203,0.00030952,0.00168981,-0.00
 035225,0.00000871,0.00032743,-0.00016593,-0.00022626,-0.00005570,-0.00
 000098,-0.00003198,0.00001783,0.00010245,-0.00004455,-0.00002999,-0.00
 006715,0.00008893,-0.00003140,0.04054431,0.09462752,-0.09944774,-0.045
 36090,-0.10507705,0.10204507,0.00024290,0.00304767,-0.00210359,-0.0225
 7882,-0.00582539,-0.00938466,0.00076275,0.00050085,0.00032807,-0.00023
 139,-0.00036541,-0.00109832,0.00000007,0.00060042,0.00238576,-0.000571
 96,0.00049936,-0.00005114,0.00000450,0.00006712,-0.00006709,0.00018876
 ,-0.00016512,-0.00008220,-0.20302434,-0.06839517,-0.10744254,-0.008568
 87,-0.00330723,-0.00560711,0.22422928,0.00077172,-0.00200870,0.0009255
 6,0.02161342,0.01013777,0.01337323,-0.00110155,0.00048064,-0.00028664,
 0.00027986,0.00028024,0.00019222,0.00001300,-0.00028850,-0.00213952,0.
 00052464,-0.00046802,0.00002233,-0.00001784,-0.00001512,0.00008888,-0.
 00016527,0.00007872,0.00011315,-0.06547478,-0.07681866,-0.04190187,-0.
 02030162,-0.00827306,-0.01585222,0.07000180,0.08000585,0.00084341,0.00
 010868,-0.00017377,0.00071920,0.00054323,0.00106845,-0.00017487,0.0002
 8353,0.00016211,0.00004681,0.00004002,0.00032073,-0.00011852,-0.000332
 39,-0.00014641,0.00000599,0.00001366,-0.00000892,0.00000072,0.00001428
 ,-0.00003136,-0.00008230,0.00011321,-0.00005718,-0.10687797,-0.0431132
 2,-0.11910428,0.01282135,0.00415571,0.00873130,0.11770200,0.04921041,0
 .12659961,0.00006084,0.00343554,-0.00049918,-0.01296434,0.00603856,0.0
 2293140,0.00063423,-0.00019816,-0.00074053,0.00040741,0.00046170,0.001
 05173,-0.00134684,-0.00101350,-0.00198810,0.00026849,-0.00016644,0.000
 05266,0.00002490,0.00007434,-0.00000092,-0.00057223,0.00052440,0.00000
 605,-0.07287022,0.01852184,0.07929753,-0.00452409,0.00315657,0.0105142
 8,0.00954711,-0.00614338,-0.02488582,0.08133475,-0.00017687,-0.0024171
 5,0.00061652,0.00982941,-0.00455483,-0.02227706,-0.00056388,0.00047626
 ,0.00061272,0.00006179,0.00005220,-0.00037172,0.00109570,0.00112693,0.
 00124110,-0.00016655,-0.00004757,-0.00004055,-0.00005608,-0.00008459,-
 0.00003222,0.00049982,-0.00046801,0.00001344,0.01932029,-0.06403065,-0
 .05497037,-0.00849326,0.00816696,0.02583548,0.00334110,-0.00311117,-0.
 01103711,-0.02469145,0.06489162,-0.00116105,-0.00040811,0.00041935,0.0
 0070540,0.00032591,0.00614610,0.00052610,-0.00057401,0.00029327,-0.000
 18903,-0.00014276,-0.00009081,-0.00007314,-0.00009120,-0.00021436,0.00
 005266,-0.00004052,-0.00001073,0.00001479,-0.00002480,0.00001789,-0.00
 005128,0.00002233,-0.00000895,0.07728612,-0.05259096,-0.26199188,0.003
 20769,-0.00314011,-0.01175766,0.00542082,-0.00374553,-0.01736029,-0.08
 573908,0.06040977,0.28455809\\0.00006679,-0.00000008,-0.00001523,-0.00
 006273,0.00002982,0.00000468,-0.00001018,-0.00000518,0.00000974,-0.000
 02410,0.00003431,-0.00000389,-0.00001334,-0.00002269,-0.00000662,-0.00
 000098,0.00000611,0.00000028,-0.00001762,0.00001371,0.00000823,0.00000
 483,-0.00000005,0.00000371,-0.00000265,-0.00001985,0.00002255,0.000018
 49,-0.00000895,-0.00000554,0.00001732,-0.00000930,-0.00000431,0.000024
 18,-0.00001785,-0.00001360\\\@


 A successful marriage requires falling in love
 many times, always with the same person.
                           -- Mignon McLaughlin
 Job cpu time:       0 days  0 hours  2 minutes  5.8 seconds.
 Elapsed time:       0 days  0 hours  0 minutes 31.8 seconds.
 File lengths (MBytes):  RWF=     12 Int=      0 D2E=      0 Chk=      2 Scr=      1
 Normal termination of Gaussian 16 at Tue Mar 12 13:20:56 2024.
